 Gaussian 16, Revision C.01,
 Gaussian 16:  ES64L-G16RevC.01  3-Jul-2019

 ----------------------------------
 # pm6 scrf=(iefpcm, solvent=water)
 ----------------------------------

 -----------------------
 MA1_1_b3lyp.out,H,H,H,H
 -----------------------
 Symbolic Z-matrix:
 Charge =  0 Multiplicity = 1

                         Standard orientation:
 ---------------------------------------------------------------------
 Center     Atomic      Atomic             Coordinates (Angstroms)
 Number     Number       Type             X           Y           Z
 ---------------------------------------------------------------------
      1          6           0       -0.980248    0.691946   -0.208941
      2          6           0       -1.921682   -0.310005    0.322912
      3          8           0       -3.012261   -0.502193   -0.200600
      4          6           0        0.228288    0.867538    0.366193
      5          6           0        2.981709   -0.364317    0.094218
      6          1           0        3.022699   -0.739895    1.120392
      7          1           0        3.509958   -1.064099   -0.559688
      8          1           0        3.486673    0.604802    0.056111
      9          7           0        1.585219   -0.220820   -0.333007
     10          1           0        1.188392   -1.165508   -0.359316
     11          1           0        1.608477    0.049867   -1.322273
     12          1           0        0.801261    1.752852    0.067922
     13          1           0        0.422538    0.431468    1.352578
     14          1           0       -1.299645    1.257245   -1.075100
     15          1           0       -1.587199   -0.874417    1.208929
 ---------------------------------------------------------------------

 SCF Done:  E(RPM6) = -0.282377796977E-01 A.U. after   15 cycles

 The electronic state is 1-A.
 Alpha  occ. eigenvalues --   -1.18811  -1.13495  -1.00413  -0.88514  -0.83130
 Alpha  occ. eigenvalues --   -0.72845  -0.66407  -0.60967  -0.57805  -0.57718
 Alpha  occ. eigenvalues --   -0.55147  -0.52677  -0.50044  -0.48902  -0.46585
 Alpha  occ. eigenvalues --   -0.44738  -0.36965  -0.32727
 Alpha virt. eigenvalues --    0.00952   0.06587   0.12476   0.15459   0.17268
 Alpha virt. eigenvalues --    0.17939   0.18719   0.18867   0.19903   0.20560
 Alpha virt. eigenvalues --    0.21468   0.21806   0.21928   0.22293   0.25221

 Mulliken charges:
               1
     1  C   -0.692726
     2  C    0.483067
     3  O   -0.666490
     4  C    0.099606
     5  C   -0.382721
     6  H    0.175898
     7  H    0.164275
     8  H    0.174852
     9  N   -0.324915
    10  H    0.223765
    11  H    0.223770
    12  H    0.126780
    13  H    0.126102
    14  H    0.182167
    15  H    0.086570
 Sum of Mulliken charges =  -0.00000

 Dipole moment (field-independent basis, Debye):
    X=             10.9746    Y=             -0.7611    Z=              0.8920  Tot=             11.0371
 N-N= 1.522731376468D+02 E-N=-2.161848309937D+02  KE=-6.462850285589D+01
 Unable to Open any file for archive entry.
 1\1\GINC-NODE-004\SP\RPM6\ZDO\C4H9N1O1\TLA25\29-Jul-2023\0\\# pm6 scrf
 =(iefpcm, solvent=water)\\MA1_1_b3lyp.out,H,H,H,H\\0,1\C,0,-0.4766,-1.
 0855,-0.3955\C,0,-1.5032,-0.1277,-0.8447\O,0,-2.6914,-0.3079,-0.6079\C
 ,0,0.83,-0.853,-0.6423\C,0,3.0848,0.6364,0.7253\H,0,3.2434,1.3456,-0.0
 918\H,0,3.281,1.1419,1.6752\H,0,3.7912,-0.1906,0.6126\N,0,1.708,0.1299
 ,0.691\H,0,1.0968,0.9295,0.8851\H,0,1.5924,-0.4592,1.5229\H,0,1.527,-1
 .6817,-0.4735\H,0,1.111,-0.0769,-1.3631\H,0,-0.8201,-1.9596,0.1428\H,0
 ,-1.1411,0.7549,-1.3973\\Version=ES64L-G16RevC.01\State=1-A\HF=-0.0282

 Normal termination of Gaussian 16 at Sat Jul 29 12:00:01 2023.
