 Gaussian 16, Revision C.01,
 Gaussian 16:  ES64L-G16RevC.01  3-Jul-2019

 ----------------------------------
 # pm6 scrf=(iefpcm, solvent=water)
 ----------------------------------

 ---------------------------
 MA1_1_b3lyp.out,Ph,H,Br,OMe
 ---------------------------
 Symbolic Z-matrix:
 Charge =  0 Multiplicity = 1

                         Standard orientation:
 ---------------------------------------------------------------------
 Center     Atomic      Atomic             Coordinates (Angstroms)
 Number     Number       Type             X           Y           Z
 ---------------------------------------------------------------------
      1          6           0       -0.742486   -0.121322    0.222479
      2          6           0       -2.097294    0.308037    0.694668
      3          8           0       -2.301693    1.189519    1.520123
      4          6           0        0.235695    0.827084    0.282421
      5          6           0       -1.122489    3.027770   -1.336008
      6          1           0       -0.927985    3.595912   -2.250161
      7          1           0       -2.103138    2.551681   -1.419882
      8          1           0       -1.138535    3.717410   -0.487600
      9          7           0       -0.080654    2.009905   -1.137704
     10          1           0       -0.071215    1.438070   -1.988709
     11          1           0        0.816305    2.510111   -1.184207
     12          6           0        1.692868    0.459674    0.250941
     13          6           0        2.322991   -0.061515   -0.888071
     14          6           0        3.687194   -0.362170   -0.871517
     15          6           0        4.437832   -0.136669    0.280369
     16          6           0        3.826770    0.391942    1.415347
     17          6           0        2.462646    0.692293    1.399561
     18          1           0        1.758020   -0.238539   -1.799094
     19          1           0        4.162552   -0.772823   -1.758363
     20          1           0        5.498781   -0.372318    0.293481
     21          1           0        4.410535    0.570445    2.314589
     22          1           0        2.002883    1.104298    2.295364
     23          1           0        0.022551    1.707460    0.912128
     24         35           0       -0.527414   -1.887920   -0.365861
     25          8           0       -3.072987   -0.406193    0.069377
     26          6           0       -4.397906   -0.050487    0.462093
     27          1           0       -5.096962   -0.682325   -0.092807
     28          1           0       -4.543100   -0.231065    1.531817
     29          1           0       -4.604113    0.995123    0.212812
 ---------------------------------------------------------------------

 SCF Done:  E(RPM6) = -0.725908444001E-01 A.U. after   19 cycles

 The electronic state is 1-A.
 Alpha  occ. eigenvalues --   -1.19817  -1.17420  -1.13514  -1.11168  -1.04088
 Alpha  occ. eigenvalues --   -0.98794  -0.96851  -0.96517  -0.92954  -0.89146
 Alpha  occ. eigenvalues --   -0.83844  -0.79813  -0.77492  -0.71315  -0.67430
 Alpha  occ. eigenvalues --   -0.65341  -0.63885  -0.62670  -0.61779  -0.60340
 Alpha  occ. eigenvalues --   -0.58426  -0.57931  -0.55276  -0.54176  -0.53510
 Alpha  occ. eigenvalues --   -0.53128  -0.51869  -0.50215  -0.49425  -0.48547
 Alpha  occ. eigenvalues --   -0.47506  -0.47061  -0.45299  -0.44824  -0.42793
 Alpha  occ. eigenvalues --   -0.42524  -0.42154  -0.39261  -0.36933  -0.36813
 Alpha  occ. eigenvalues --   -0.32569
 Alpha virt. eigenvalues --   -0.01545   0.00003   0.00478   0.01496   0.04598
 Alpha virt. eigenvalues --    0.04905   0.08474   0.11009   0.11554   0.12312
 Alpha virt. eigenvalues --    0.13557   0.14930   0.16190   0.16954   0.17117

 Mulliken charges:
               1
     1  C   -0.501403
     2  C    0.701383
     3  O   -0.634045
     4  C    0.231893
     5  C   -0.374795
     6  H    0.169069
     7  H    0.175388
     8  H    0.176849
     9  N   -0.323111
    10  H    0.226780
    11  H    0.227065
    12  C   -0.073370
    13  C   -0.133155
    14  C   -0.152556
    15  C   -0.133296
    16  C   -0.148310
    17  C   -0.145362
    18  H    0.158745
    19  H    0.158869
    20  H    0.156650
    21  H    0.158925
    22  H    0.160154
    23  H    0.154482
    24  Br  -0.087131
    25  O   -0.413601
    26  C   -0.206798
    27  H    0.166164
    28  H    0.152576
    29  H    0.151941
 Sum of Mulliken charges =  -0.00000

 Dipole moment (field-independent basis, Debye):
    X=              3.0686    Y=              5.5584    Z=             -4.9110  Tot=              8.0268
 N-N= 5.653735123343D+02 E-N=-9.277903691078D+02  KE=-1.495842459283D+02
 Unable to Open any file for archive entry.
 1\1\GINC-NODE-004\SP\RPM6\ZDO\C11H14Br1N1O2\TLA25\29-Jul-2023\0\\# pm6
  scrf=(iefpcm, solvent=water)\\MA1_1_b3lyp.out,Ph,H,Br,OMe\\0,1\C,0,0.
 0016,-0.6343,0.5845\C,0,-0.5609,0.7448,0.428\O,0,-0.0431,1.7638,0.8681
 \C,0,1.3558,-0.711,0.7265\C,0,2.1935,0.8114,-1.781\H,0,2.7755,0.6188,-
 2.6868\H,0,1.198,1.159,-2.07\H,0,2.6866,1.5989,-1.2045\N,0,2.088,-0.41
 25,-0.9737\H,0,1.6804,-1.1269,-1.5859\H,0,3.051,-0.7456,-0.8374\C,0,2.
 0205,-1.9316,1.2989\C,0,2.0608,-3.1625,0.6286\C,0,2.7149,-4.2596,1.194
 5\C,0,3.3433,-4.1357,2.4318\C,0,3.3211,-2.9151,3.1031\C,0,2.6668,-1.81

 Normal termination of Gaussian 16 at Sat Jul 29 12:21:16 2023.
