 Gaussian 16, Revision C.01,
 Gaussian 16:  ES64L-G16RevC.01  3-Jul-2019

 ----------------------------------
 # pm6 scrf=(iefpcm, solvent=water)
 ----------------------------------

 ---------------------------
 MA1_1_b3lyp.out,Cl,Me,Me,Me
 ---------------------------
 Symbolic Z-matrix:
 Charge =  0 Multiplicity = 1

                         Standard orientation:
 ---------------------------------------------------------------------
 Center     Atomic      Atomic             Coordinates (Angstroms)
 Number     Number       Type             X           Y           Z
 ---------------------------------------------------------------------
      1          6           0       -0.469439   -0.701580   -0.315696
      2          6           0       -1.803252   -0.378825    0.264587
      3          8           0       -2.166598   -0.889812    1.322452
      4          6           0        0.640630   -0.223687    0.323878
      5          6           0        0.482161    2.802381   -0.361909
      6          1           0        1.059199    3.479005   -0.998730
      7          1           0       -0.568662    2.851680   -0.657673
      8          1           0        0.569541    3.136543    0.675554
      9          7           0        0.982317    1.428131   -0.494869
     10          1           0        0.974700    1.215858   -1.499400
     11          1           0        1.990506    1.473484   -0.289957
     12         17           0        2.204235   -1.064981   -0.039057
     13          6           0        0.599196    0.237939    1.789234
     14          1           0       -0.221972    0.936823    1.979147
     15          1           0        0.484666   -0.627231    2.451512
     16          1           0        1.529839    0.745817    2.068210
     17          6           0       -0.506174   -1.498006   -1.583546
     18          1           0        0.436523   -1.456031   -2.136427
     19          1           0       -0.727868   -2.546794   -1.361191
     20          1           0       -1.279433   -1.125037   -2.263141
     21          6           0       -2.695289    0.557047   -0.506426
     22          1           0       -3.558566    0.003004   -0.883777
     23          1           0       -3.024914    1.362665    0.155140
     24          1           0       -2.165987    1.004862   -1.351562
 ---------------------------------------------------------------------

 SCF Done:  E(RPM6) = -0.828101560503E-01 A.U. after   18 cycles

 The electronic state is 1-A.
 Alpha  occ. eigenvalues --   -1.18946  -1.14967  -1.04755  -0.99861  -0.96257
 Alpha  occ. eigenvalues --   -0.94559  -0.88998  -0.84500  -0.77216  -0.66827
 Alpha  occ. eigenvalues --   -0.63953  -0.61092  -0.59172  -0.58955  -0.57791
 Alpha  occ. eigenvalues --   -0.55145  -0.54432  -0.51850  -0.51618  -0.50124
 Alpha  occ. eigenvalues --   -0.48956  -0.48708  -0.48382  -0.47125  -0.46863
 Alpha  occ. eigenvalues --   -0.45137  -0.42076  -0.41519  -0.37756  -0.31019
 Alpha virt. eigenvalues --    0.00274   0.02880   0.04224   0.11473   0.12284
 Alpha virt. eigenvalues --    0.12388   0.15514   0.16721   0.17695   0.17801
 Alpha virt. eigenvalues --    0.18719   0.19158   0.19858   0.20007   0.20109

 Mulliken charges:
               1
     1  C   -0.582054
     2  C    0.704699
     3  O   -0.634924
     4  C    0.478096
     5  C   -0.372526
     6  H    0.160931
     7  H    0.174300
     8  H    0.174505
     9  N   -0.343316
    10  H    0.228794
    11  H    0.218026
    12  Cl  -0.245843
    13  C   -0.541296
    14  H    0.190151
    15  H    0.184406
    16  H    0.182533
    17  C   -0.351070
    18  H    0.144749
    19  H    0.138239
    20  H    0.141562
    21  C   -0.640326
    22  H    0.197913
    23  H    0.195758
    24  H    0.196695
 Sum of Mulliken charges =  -0.00000

 Dipole moment (field-independent basis, Debye):
    X=              2.6874    Y=              7.7587    Z=             -3.8132  Tot=              9.0532
 N-N= 3.553551584302D+02 E-N=-5.671194949082D+02  KE=-1.050951380124D+02
 Unable to Open any file for archive entry.
 1\1\GINC-NODE-004\SP\RPM6\ZDO\C7H14Cl1N1O1\TLA25\29-Jul-2023\0\\# pm6
 scrf=(iefpcm, solvent=water)\\MA1_1_b3lyp.out,Cl,Me,Me,Me\\0,1\C,0,-0.
 528,-1.2035,0.1484\C,0,-1.4623,-0.0934,-0.1903\O,0,-2.2232,0.3664,0.65
 93\C,0,0.525,-0.9255,0.9752\C,0,2.3482,0.7475,-0.9035\H,0,3.3093,0.576
 4,-1.3968\H,0,1.607,1.015,-1.6606\H,0,2.4547,1.584,-0.2074\N,0,1.924,-
 0.4597,-0.183\H,0,1.9484,-1.2254,-0.8666\H,0,2.7039,-0.7031,0.4439\Cl,
 0,1.2888,-2.3408,1.8106\C,0,0.5408,0.3147,1.8828\H,0,0.2959,1.2306,1.3
 351\H,0,-0.1788,0.1905,2.6995\H,0,1.5295,0.4597,2.3337\C,0,-0.8393,-2.

 Normal termination of Gaussian 16 at Sat Jul 29 12:31:28 2023.
