 Gaussian 16, Revision C.01,
 Gaussian 16:  ES64L-G16RevC.01  3-Jul-2019

 ----------------------------------------------------------------------
 # m062x 6-31g(d) scrf=(iefpcm,solvent=benzene) opt=(maxcycles=50,maxst
 ep=10)
 ----------------------------------------------------------------------

 ----------
 Structure3
 ----------
 Symbolic Z-matrix:
 Charge =  0 Multiplicity = 1

 SCF Done:  E(RM062X) =  -2180.94042199     A.U. after   14 cycles
 SCF Done:  E(RM062X) =  -2180.95036661     A.U. after   12 cycles
 SCF Done:  E(RM062X) =  -2180.95942795     A.U. after   12 cycles
 SCF Done:  E(RM062X) =  -2180.95882345     A.U. after   12 cycles
 SCF Done:  E(RM062X) =  -2180.96287038     A.U. after   11 cycles
 SCF Done:  E(RM062X) =  -2180.96349136     A.U. after   11 cycles
 SCF Done:  E(RM062X) =  -2180.96403219     A.U. after   10 cycles
 SCF Done:  E(RM062X) =  -2180.96424704     A.U. after   10 cycles
 SCF Done:  E(RM062X) =  -2180.96432857     A.U. after   10 cycles
 SCF Done:  E(RM062X) =  -2180.96437159     A.U. after    9 cycles
 SCF Done:  E(RM062X) =  -2180.96441128     A.U. after    9 cycles
 SCF Done:  E(RM062X) =  -2180.96445598     A.U. after    9 cycles
 SCF Done:  E(RM062X) =  -2180.96450824     A.U. after    9 cycles
 SCF Done:  E(RM062X) =  -2180.96454029     A.U. after   10 cycles
 SCF Done:  E(RM062X) =  -2180.96459817     A.U. after    9 cycles
 SCF Done:  E(RM062X) =  -2180.96462111     A.U. after    9 cycles
 SCF Done:  E(RM062X) =  -2180.96462281     A.U. after    8 cycles
 SCF Done:  E(RM062X) =  -2180.96462306     A.U. after    7 cycles
 SCF Done:  E(RM062X) =  -2180.96462294     A.U. after    6 cycles
 SCF Done:  E(RM062X) =  -2180.96462293     A.U. after    6 cycles
 Optimization completed.
    -- Stationary point found.

                         Standard orientation:
 ---------------------------------------------------------------------
 Center     Atomic      Atomic             Coordinates (Angstroms)
 Number     Number       Type             X           Y           Z
 ---------------------------------------------------------------------
      1          6           0        2.545642    1.571079    1.296949
      2          6           0        1.207113    1.598002    0.958996
      3          6           0        0.690667    0.524669    0.183719
      4          6           0        1.552998   -0.498585   -0.188642
      5          1           0        2.945573    2.363574    1.923793
      6          8           0        0.992338   -1.539951   -0.924279
      7          6           0       -1.503789   -0.647385    0.092303
      8          6           0       -0.738013    0.462110   -0.251780
      9          6           0       -1.354061    1.510810   -0.986002
     10          6           0       -2.691691    1.384866   -1.301943
     11          8           0       -0.841358   -1.670427    0.773736
     12          1           0       -3.166126    2.157896   -1.900391
     13          6           0        2.931704   -0.548505    0.125159
     14          6           0        3.410213    0.531509    0.910256
     15          6           0        4.771997    0.547602    1.365714
     16          6           0        5.610364   -0.469571    1.071862
     17          1           0        5.099384    1.388189    1.970570
     18          1           0        6.634425   -0.470335    1.434841
     19          6           0       -3.465589    0.276448   -0.916286
     20          6           0       -2.887588   -0.785538   -0.172837
     21          6           0       -5.606406   -0.852907   -1.003791
     22          6           0       -4.841396    0.213060   -1.322168
     23          1           0       -6.642977   -0.910802   -1.324285
     24          1           0       -5.241069    1.038204   -1.904458
     25          6           0        5.180420   -1.570269    0.254936
     26          6           0        3.855552   -1.616372   -0.260809
     27          6           0        3.540794   -2.690835   -1.132008
     28          6           0        4.462584   -3.677186   -1.422438
     29          6           0        5.751668   -3.645527   -0.869200
     30          6           0        6.100557   -2.595015   -0.051941
     31          1           0        2.580846   -2.732771   -1.623468
     32          1           0        4.182928   -4.478206   -2.099644
     33          1           0        6.467852   -4.427893   -1.098731
     34          1           0        7.101062   -2.530710    0.367501
     35          6           0       -3.732169   -1.909021    0.239048
     36          6           0       -5.081363   -1.929743   -0.211691
     37          6           0       -5.933864   -2.997335    0.138937
     38          6           0       -5.493648   -4.025415    0.940307
     39          6           0       -4.177750   -3.994143    1.425032
     40          6           0       -3.320213   -2.966905    1.086890
     41          1           0       -6.955122   -2.983919   -0.232420
     42          1           0       -6.157812   -4.841944    1.204956
     43          1           0       -3.822650   -4.784637    2.078606
     44          1           0       -2.328086   -2.972776    1.508387
     45          6           0       -1.138843    4.910836    2.339979
     46          6           0        0.109033    5.119979    1.758175
     47          6           0        0.859867    4.037661    1.312005
     48          6           0        0.374820    2.731518    1.439348
     49          6           0       -0.874930    2.529213    2.035741
     50          6           0       -1.626415    3.612430    2.480244
     51          1           0       -1.729166    5.754304    2.684767
     52          1           0        0.492531    6.128350    1.635157
     53          1           0        1.812494    4.203368    0.815941
     54          1           0       -1.255573    1.519464    2.158575
     55          1           0       -2.593073    3.440454    2.943619
     56          6           0        0.696703    5.041341   -2.295628
     57          6           0        1.288044    3.791772   -2.474624
     58          6           0        0.632006    2.639018   -2.054589
     59          6           0       -0.624143    2.721563   -1.443283
     60          6           0       -1.213862    3.979489   -1.277518
     61          6           0       -0.558902    5.131307   -1.699882
     62          1           0        1.212372    5.939551   -2.621405
     63          1           0        2.260811    3.712453   -2.950189
     64          1           0        1.091843    1.667247   -2.208621
     65          1           0       -2.171824    4.053221   -0.769663
     66          1           0       -1.023070    6.100990   -1.547221
     67         15           0        0.117293   -2.615651   -0.103741
     68          8           0        1.033425   -3.145470    1.086607
     69          8           0       -0.472103   -3.620270   -0.992530
     70          1           0        1.497926   -3.965680    0.850387
 ---------------------------------------------------------------------

 The electronic state is 1-A.
 Alpha  occ. eigenvalues --  -78.22773 -19.69995 -19.69726 -19.69504 -19.62022
 Alpha  occ. eigenvalues --  -10.63352 -10.63199 -10.57983 -10.57955 -10.57933
 Alpha  occ. eigenvalues --  -10.57813 -10.57625 -10.57459 -10.57303 -10.57241
 Alpha  occ. eigenvalues --  -10.57109 -10.57033 -10.56763 -10.56282 -10.56195
 Alpha  occ. eigenvalues --  -10.56129 -10.56009 -10.55889 -10.55846 -10.55757
 Alpha  occ. eigenvalues --  -10.55695 -10.55691 -10.55649 -10.55577 -10.55559
 Alpha  occ. eigenvalues --  -10.55425 -10.55201 -10.55180 -10.55149 -10.55134
 Alpha  occ. eigenvalues --  -10.55103 -10.55099 -10.55089 -10.55061 -10.55037
 Alpha  occ. eigenvalues --  -10.55014 -10.55008 -10.54956 -10.54942 -10.54804
 Alpha  occ. eigenvalues --   -7.00889  -5.12701  -5.12644  -5.12492  -1.25794
 Alpha  occ. eigenvalues --   -1.19386  -1.18372  -1.10235  -1.00338  -0.99458
 Alpha  occ. eigenvalues --   -0.97860  -0.96642  -0.95610  -0.95100  -0.92678
 Alpha  occ. eigenvalues --   -0.91130  -0.89019  -0.88535  -0.87676  -0.85561
 Alpha  occ. eigenvalues --   -0.85303  -0.84874  -0.84077  -0.83972  -0.82729
 Alpha  occ. eigenvalues --   -0.81459  -0.81108  -0.80540  -0.76664  -0.73672
 Alpha  occ. eigenvalues --   -0.72940  -0.72108  -0.70796  -0.70229  -0.69466
 Alpha  occ. eigenvalues --   -0.68934  -0.68687  -0.68372  -0.67614  -0.67261
 Alpha  occ. eigenvalues --   -0.66278  -0.63622  -0.62279  -0.62109  -0.60633
 Alpha  occ. eigenvalues --   -0.60438  -0.59285  -0.58487  -0.58172  -0.58064
 Alpha  occ. eigenvalues --   -0.56871  -0.56391  -0.55739  -0.55434  -0.54984
 Alpha  occ. eigenvalues --   -0.53658  -0.53527  -0.53142  -0.52907  -0.51771
 Alpha  occ. eigenvalues --   -0.51619  -0.51449  -0.50716  -0.49823  -0.49723
 Alpha  occ. eigenvalues --   -0.49418  -0.49181  -0.49085  -0.48582  -0.48530
 Alpha  occ. eigenvalues --   -0.48208  -0.47927  -0.47838  -0.46974  -0.46712
 Alpha  occ. eigenvalues --   -0.46295  -0.46166  -0.45445  -0.44933  -0.44536
 Alpha  occ. eigenvalues --   -0.44206  -0.43524  -0.43289  -0.42991  -0.42743
 Alpha  occ. eigenvalues --   -0.42277  -0.41917  -0.40665  -0.40469  -0.40039
 Alpha  occ. eigenvalues --   -0.39955  -0.39852  -0.39379  -0.39003  -0.38810
 Alpha  occ. eigenvalues --   -0.38093  -0.37742  -0.37418  -0.37205  -0.35262
 Alpha  occ. eigenvalues --   -0.34801  -0.32587  -0.31772  -0.30750  -0.30625
 Alpha  occ. eigenvalues --   -0.29996  -0.29655  -0.27445  -0.26765  -0.26431
 Alpha  occ. eigenvalues --   -0.25663
 Alpha virt. eigenvalues --   -0.03029  -0.02055  -0.01377  -0.00865   0.02404
 Alpha virt. eigenvalues --    0.02644   0.03424   0.03555   0.04438   0.04590
 Alpha virt. eigenvalues --    0.06519   0.07296   0.08931   0.11307   0.12437

 Mulliken charges:
               1
     1  C   -0.270971
     2  C    0.064985
     3  C   -0.005049
     4  C    0.197490
     5  H    0.179271
     6  O   -0.636548
     7  C    0.193656
     8  C   -0.000483
     9  C    0.064518
    10  C   -0.270400
    11  O   -0.635026
    12  H    0.179205
    13  C    0.078615
    14  C    0.073145
    15  C   -0.206498
    16  C   -0.195888
    17  H    0.181062
    18  H    0.179580
    19  C    0.072540
    20  C    0.076382
    21  C   -0.195288
    22  C   -0.207191
    23  H    0.178503
    24  H    0.179297
    25  C    0.067730
    26  C    0.045502
    27  C   -0.235774
    28  C   -0.184835
    29  C   -0.166980
    30  C   -0.222008
    31  H    0.223932
    32  H    0.178978
    33  H    0.178079
    34  H    0.175744
    35  C    0.042024
    36  C    0.068916
    37  C   -0.222878
    38  C   -0.165337
    39  C   -0.182767
    40  C   -0.185264
    41  H    0.172805
    42  H    0.175147
    43  H    0.173153
    44  H    0.206327
    45  C   -0.168308
    46  C   -0.170699
    47  C   -0.169034
    48  C    0.028821
    49  C   -0.172607
    50  C   -0.178833
    51  H    0.170586
    52  H    0.169859
    53  H    0.169989
    54  H    0.176279
    55  H    0.174807
    56  C   -0.168311
    57  C   -0.178993
    58  C   -0.173105
    59  C    0.029492
    60  C   -0.169022
    61  C   -0.170628
    62  H    0.170208
    63  H    0.174244
    64  H    0.176336
    65  H    0.169713
    66  H    0.169525
    67  P    1.262910
    68  O   -0.673626
    69  O   -0.550970
    70  H    0.483964
 Sum of Mulliken charges =  -0.00000

 Dipole moment (field-independent basis, Debye):
    X=              1.8739    Y=              2.6994    Z=              1.5028  Tot=              3.6134
 Quadrupole moment (field-independent basis, Debye-Ang):
   XX=           -217.1941   YY=           -232.6422   ZZ=           -266.4073
   XY=             -9.3619   XZ=              1.5580   YZ=             -6.9150

 Normal termination of Gaussian 16 at Sat Dec  9 23:47:18 2023.
