 Gaussian 16, Revision C.01,
 Gaussian 16:  ES64L-G16RevC.01  3-Jul-2019

 ----------------------------------------------------------------------
 # m062x 6-31g(d) scrf=(iefpcm,solvent=benzene) opt=(maxcycles=50,maxst
 ep=10)
 ----------------------------------------------------------------------

 ----------
 Structure1
 ----------
 Symbolic Z-matrix:
 Charge =  0 Multiplicity = 1

 SCF Done:  E(RM062X) =  -1303.00328461     A.U. after   14 cycles
 SCF Done:  E(RM062X) =  -1303.01234318     A.U. after   12 cycles
 SCF Done:  E(RM062X) =  -1303.02015373     A.U. after   12 cycles
 SCF Done:  E(RM062X) =  -1303.02143859     A.U. after   13 cycles
 SCF Done:  E(RM062X) =  -1303.02285773     A.U. after   13 cycles
 SCF Done:  E(RM062X) =  -1303.02345186     A.U. after   11 cycles
 SCF Done:  E(RM062X) =  -1303.02348371     A.U. after   11 cycles
 SCF Done:  E(RM062X) =  -1303.02359718     A.U. after   11 cycles
 SCF Done:  E(RM062X) =  -1303.02357720     A.U. after   11 cycles
 SCF Done:  E(RM062X) =  -1303.02351766     A.U. after   11 cycles
 SCF Done:  E(RM062X) =  -1303.02360694     A.U. after   10 cycles
 SCF Done:  E(RM062X) =  -1303.02362946     A.U. after    9 cycles
 SCF Done:  E(RM062X) =  -1303.02363135     A.U. after    9 cycles
 SCF Done:  E(RM062X) =  -1303.02363119     A.U. after    8 cycles
 SCF Done:  E(RM062X) =  -1303.02363163     A.U. after    7 cycles
 SCF Done:  E(RM062X) =  -1303.02363174     A.U. after    6 cycles
 Optimization completed.
    -- Stationary point found.

                         Standard orientation:
 ---------------------------------------------------------------------
 Center     Atomic      Atomic             Coordinates (Angstroms)
 Number     Number       Type             X           Y           Z
 ---------------------------------------------------------------------
      1          6           0       -0.297954   -0.876895    0.416691
      2          6           0       -0.407643    0.483501    0.722295
      3          6           0       -1.616046    1.140570    0.527134
      4          6           0       -2.690992    0.388006    0.047434
      5          6           0       -2.544688   -0.980684   -0.259602
      6          6           0       -1.334910   -1.644715   -0.085929
      7          8           0        0.979702   -1.251410    0.694281
      8          7           0        0.831683    0.936602    1.176331
      9          1           0       -1.736846    2.198564    0.731994
     10          1           0       -3.389186   -1.524690   -0.669246
     11          1           0       -1.203596   -2.689450   -0.340528
     12          6           0        1.593003   -0.103576    1.111816
     13          6           0        3.044811   -0.206131    1.495402
     14          6           0        3.747918    1.139107    1.236114
     15          6           0        4.126406    1.439899   -0.228231
     16          6           0        4.941322    0.271641   -0.787659
     17          6           0        4.128687   -1.026689   -0.732106
     18          6           0        3.767915   -1.337778    0.737542
     19          1           0        4.682812    1.124711    1.813418
     20          1           0        3.132774    1.952033    1.638463
     21          6           0        4.946447    2.731886   -0.249496
     22          6           0        2.909756    1.641454   -1.146338
     23          1           0        5.236327    0.484970   -1.824670
     24          1           0        5.866459    0.145750   -0.207668
     25          6           0        4.920244   -2.195995   -1.313541
     26          1           0        4.711989   -1.527362    1.266294
     27          1           0        3.180967   -2.261258    0.783507
     28          6           0        3.065005   -0.514986    3.005799
     29          1           0        5.305367    2.950802   -1.260634
     30          1           0        4.345560    3.582358    0.092104
     31          1           0        5.816635    2.646157    0.409276
     32          1           0        5.193648   -1.999563   -2.354916
     33          1           0        5.839250   -2.347778   -0.737739
     34          1           0        4.326004   -3.111663   -1.288163
     35          6           0        2.829288   -0.868657   -1.526369
     36          8           0        2.256025   -1.821552   -2.035278
     37          1           0        3.232712    2.202025   -2.034223
     38          7           0        2.303565    0.386218   -1.577785
     39          1           0        2.148415    2.236212   -0.629449
     40          1           0        1.437451    0.443198   -2.102270
     41          1           0        2.567870    0.282904    3.565284
     42          1           0        2.552131   -1.459149    3.215466
     43          1           0        4.098984   -0.597938    3.354815
     44          6           0       -3.973274    1.120177   -0.207544
     45          8           0       -3.953690    2.311187   -0.465362
     46          6           0       -7.795834   -0.810295   -0.008603
     47          6           0       -6.752540   -1.290885    0.779000
     48          6           0       -5.495512   -0.696171    0.709558
     49          6           0       -5.281879    0.392544   -0.141531
     50          6           0       -6.340904    0.886507   -0.910173
     51          6           0       -7.589195    0.279905   -0.854114
     52          1           0       -8.772849   -1.281191    0.040172
     53          1           0       -6.917134   -2.127926    1.449953
     54          1           0       -4.687017   -1.063698    1.334170
     55          1           0       -6.164331    1.747879   -1.546385
     56          1           0       -8.404016    0.658117   -1.463280
 ---------------------------------------------------------------------

 The electronic state is 1-A.
 Alpha  occ. eigenvalues --  -19.72306 -19.63426 -19.59750 -14.77987 -14.76328
 Alpha  occ. eigenvalues --  -10.65468 -10.64331 -10.64304 -10.62022 -10.58818
 Alpha  occ. eigenvalues --  -10.58323 -10.58090 -10.56924 -10.56848 -10.56721
 Alpha  occ. eigenvalues --  -10.56632 -10.56618 -10.56403 -10.56314 -10.56280
 Alpha  occ. eigenvalues --  -10.56144 -10.55897 -10.55867 -10.55743 -10.55385
 Alpha  occ. eigenvalues --  -10.55004 -10.54751 -10.54740 -10.54045 -10.53205
 Alpha  occ. eigenvalues --   -1.26611  -1.16544  -1.14918  -1.04432  -1.03105
 Alpha  occ. eigenvalues --   -0.97884  -0.96808  -0.95878  -0.91116  -0.90016
 Alpha  occ. eigenvalues --   -0.87418  -0.85816  -0.84946  -0.84203  -0.79085
 Alpha  occ. eigenvalues --   -0.78283  -0.77856  -0.77591  -0.76093  -0.72277
 Alpha  occ. eigenvalues --   -0.71479  -0.70990  -0.69607  -0.69097  -0.65579
 Alpha  occ. eigenvalues --   -0.64845  -0.64319  -0.61143  -0.60027  -0.59059
 Alpha  occ. eigenvalues --   -0.57906  -0.57588  -0.56731  -0.55908  -0.55449
 Alpha  occ. eigenvalues --   -0.53574  -0.53377  -0.52777  -0.52295  -0.52255
 Alpha  occ. eigenvalues --   -0.51766  -0.50800  -0.50352  -0.49493  -0.49252
 Alpha  occ. eigenvalues --   -0.48712  -0.48480  -0.47397  -0.46921  -0.46463
 Alpha  occ. eigenvalues --   -0.46386  -0.45744  -0.45640  -0.45088  -0.44141
 Alpha  occ. eigenvalues --   -0.43815  -0.43336  -0.43135  -0.42639  -0.42159
 Alpha  occ. eigenvalues --   -0.41831  -0.41567  -0.41083  -0.40551  -0.39820
 Alpha  occ. eigenvalues --   -0.38865  -0.38520  -0.36765  -0.35953  -0.35386
 Alpha  occ. eigenvalues --   -0.32944  -0.31261  -0.31168  -0.30963  -0.30554
 Alpha  occ. eigenvalues --   -0.30256  -0.28944
 Alpha virt. eigenvalues --   -0.02795   0.00593   0.02463   0.03060   0.07387
 Alpha virt. eigenvalues --    0.07678   0.10635   0.10921   0.13790   0.13827
 Alpha virt. eigenvalues --    0.13939   0.14729   0.15652   0.15797   0.16744

 Mulliken charges:
               1
     1  C    0.323429
     2  C    0.194114
     3  C   -0.200483
     4  C   -0.004445
     5  C   -0.215660
     6  C   -0.193619
     7  O   -0.528820
     8  N   -0.547218
     9  H    0.207002
    10  H    0.192586
    11  H    0.208393
    12  C    0.559920
    13  C   -0.062594
    14  C   -0.285111
    15  C   -0.004558
    16  C   -0.293517
    17  C   -0.061104
    18  C   -0.297460
    19  H    0.149368
    20  H    0.181367
    21  C   -0.480015
    22  C   -0.126600
    23  H    0.158778
    24  H    0.151807
    25  C   -0.470745
    26  H    0.156975
    27  H    0.187493
    28  C   -0.476074
    29  H    0.163609
    30  H    0.167665
    31  H    0.164044
    32  H    0.164728
    33  H    0.152528
    34  H    0.183530
    35  C    0.622133
    36  O   -0.566254
    37  H    0.167865
    38  N   -0.666481
    39  H    0.191176
    40  H    0.362384
    41  H    0.181754
    42  H    0.176083
    43  H    0.171641
    44  C    0.362243
    45  O   -0.481921
    46  C   -0.158700
    47  C   -0.176414
    48  C   -0.188282
    49  C    0.010953
    50  C   -0.173299
    51  C   -0.175774
    52  H    0.180337
    53  H    0.179989
    54  H    0.186591
    55  H    0.193762
    56  H    0.180899
 Sum of Mulliken charges =  -0.00000

 Dipole moment (field-independent basis, Debye):
    X=              1.7350    Y=             -0.8487    Z=              1.8569  Tot=              2.6793
 Quadrupole moment (field-independent basis, Debye-Ang):
   XX=           -139.5896   YY=           -181.0012   ZZ=           -175.8233
   XY=             21.2559   XZ=              6.1666   YZ=            -10.5816

 Normal termination of Gaussian 16 at Sat Dec  9 23:09:20 2023.
