 Gaussian 16, Revision C.01,
 Gaussian 16:  ES64L-G16RevC.01  3-Jul-2019

 ----------------------------------------------------------------------
 # m062x 6-31g(d) scrf=(iefpcm,solvent=benzene) opt=(maxcycles=50,maxst
 ep=10)
 ----------------------------------------------------------------------

 ----------
 Structure1
 ----------
 Symbolic Z-matrix:
 Charge =  0 Multiplicity = 1

 SCF Done:  E(RM062X) =  -1498.45228222     A.U. after   13 cycles
 SCF Done:  E(RM062X) =  -1498.46159709     A.U. after   11 cycles
 SCF Done:  E(RM062X) =  -1498.46864964     A.U. after   12 cycles
 SCF Done:  E(RM062X) =  -1498.46823157     A.U. after   12 cycles
 SCF Done:  E(RM062X) =  -1498.47152082     A.U. after   11 cycles
 SCF Done:  E(RM062X) =  -1498.47028974     A.U. after   11 cycles
 SCF Done:  E(RM062X) =  -1498.47238795     A.U. after   11 cycles
 SCF Done:  E(RM062X) =  -1498.47269988     A.U. after   11 cycles
 SCF Done:  E(RM062X) =  -1498.47277266     A.U. after   10 cycles
 SCF Done:  E(RM062X) =  -1498.47280180     A.U. after   10 cycles
 SCF Done:  E(RM062X) =  -1498.47281740     A.U. after    9 cycles
 SCF Done:  E(RM062X) =  -1498.47282908     A.U. after    9 cycles
 SCF Done:  E(RM062X) =  -1498.47283385     A.U. after    8 cycles
 SCF Done:  E(RM062X) =  -1498.47283807     A.U. after    9 cycles
 SCF Done:  E(RM062X) =  -1498.47284140     A.U. after    9 cycles
 SCF Done:  E(RM062X) =  -1498.47284283     A.U. after    8 cycles
 SCF Done:  E(RM062X) =  -1498.47284308     A.U. after    7 cycles
 SCF Done:  E(RM062X) =  -1498.47284315     A.U. after    7 cycles
 SCF Done:  E(RM062X) =  -1498.47284321     A.U. after    7 cycles
 SCF Done:  E(RM062X) =  -1498.47284325     A.U. after    6 cycles
 Optimization completed.
    -- Stationary point found.

                         Standard orientation:
 ---------------------------------------------------------------------
 Center     Atomic      Atomic             Coordinates (Angstroms)
 Number     Number       Type             X           Y           Z
 ---------------------------------------------------------------------
      1          6           0       -1.099186    1.034244   -0.230344
      2          6           0       -2.414089    1.310762    0.113040
      3          6           0       -3.341164    0.290489    0.294727
      4          6           0       -2.908799   -1.018518    0.116738
      5          6           0       -1.598037   -1.327398   -0.230241
      6          6           0       -0.672440   -0.289287   -0.406091
      7          1           0       -0.389950    1.847880   -0.356812
      8          6           0       -2.844312    2.744453    0.239350
      9          1           0       -4.364374    0.509087    0.576636
     10          6           0       -3.899811   -2.141875    0.249081
     11          1           0       -1.288247   -2.354437   -0.365079
     12          7           0        0.669114   -0.482226   -0.715177
     13          9           0       -4.460475   -2.445215   -0.932304
     14          9           0       -3.327281   -3.262595    0.708710
     15          9           0       -4.899892   -1.826056    1.085782
     16          9           0       -3.900351    2.879406    1.052244
     17          9           0       -1.858672    3.517737    0.722680
     18          9           0       -3.193624    3.262517   -0.948877
     19          1           0        1.252517    0.353790   -0.890553
     20          6           0        1.278768   -1.666584   -1.055292
     21          8           0        0.696704   -2.726371   -1.228039
     22          7           0        2.647929   -1.532925   -1.290633
     23          1           0        2.976847   -2.431620   -1.631670
     24          6           0        5.117828   -1.410680    1.642564
     25          6           0        3.927802   -1.902363    0.816694
     26          6           0        3.636816   -0.958117   -0.359218
     27          6           0        3.325029    0.447393    0.185564
     28          6           0        4.561003    0.952988    0.950791
     29          6           0        4.896136    0.023745    2.121198
     30          1           0        6.023114   -1.449032    1.021499
     31          1           0        5.288210   -2.078538    2.492876
     32          1           0        3.027948   -1.971515    1.443720
     33          1           0        4.123118   -2.907975    0.427152
     34          1           0        4.557823   -0.875130   -0.952978
     35          7           0        2.806023    1.353499   -0.850990
     36          1           0        2.510929    0.347541    0.919736
     37          1           0        5.419574    1.015953    0.268470
     38          1           0        4.373099    1.963398    1.327167
     39          1           0        4.064443    0.041711    2.838295
     40          1           0        5.779921    0.392341    2.651650
     41          6           0        2.456932    2.667496   -0.322928
     42          6           0        3.642140    1.468639   -2.040807
     43          1           0        1.846949    3.197993   -1.060589
     44          1           0        1.871042    2.551030    0.595435
     45          1           0        3.333472    3.293161   -0.096408
     46          1           0        3.145732    2.136843   -2.749630
     47          1           0        4.639054    1.883737   -1.823495
     48          1           0        3.748632    0.491839   -2.516589
 ---------------------------------------------------------------------

 The electronic state is 1-A.
 Alpha  occ. eigenvalues --  -25.28763 -25.28721 -25.28272 -25.28152 -25.28141
 Alpha  occ. eigenvalues --  -25.27632 -19.61119 -14.78875 -14.77686 -14.77628
 Alpha  occ. eigenvalues --  -10.80289 -10.79769 -10.68346 -10.61674 -10.59949
 Alpha  occ. eigenvalues --  -10.59203 -10.58524 -10.58245 -10.57762 -10.57515
 Alpha  occ. eigenvalues --  -10.57261 -10.57159 -10.56632 -10.55206 -10.55138
 Alpha  occ. eigenvalues --  -10.54977 -10.54897  -1.45746  -1.45239  -1.36571
 Alpha  occ. eigenvalues --   -1.36077  -1.36042  -1.35575  -1.17597  -1.06583
 Alpha  occ. eigenvalues --   -1.04781  -1.02302  -0.98275  -0.93477  -0.90681
 Alpha  occ. eigenvalues --   -0.87227  -0.84748  -0.84114  -0.81237  -0.80823
 Alpha  occ. eigenvalues --   -0.80039  -0.75628  -0.74056  -0.72930  -0.71587
 Alpha  occ. eigenvalues --   -0.70097  -0.68282  -0.68097  -0.67701  -0.67584
 Alpha  occ. eigenvalues --   -0.67240  -0.65663  -0.64704  -0.61580  -0.60138
 Alpha  occ. eigenvalues --   -0.59165  -0.58551  -0.56863  -0.56259  -0.56082
 Alpha  occ. eigenvalues --   -0.55951  -0.55487  -0.55304  -0.54538  -0.54142
 Alpha  occ. eigenvalues --   -0.53262  -0.52104  -0.51957  -0.51567  -0.51505
 Alpha  occ. eigenvalues --   -0.51205  -0.51006  -0.50749  -0.50067  -0.49967
 Alpha  occ. eigenvalues --   -0.49454  -0.49225  -0.48201  -0.47582  -0.47296
 Alpha  occ. eigenvalues --   -0.46596  -0.45913  -0.45047  -0.44466  -0.44287
 Alpha  occ. eigenvalues --   -0.43868  -0.42252  -0.41912  -0.41221  -0.40114
 Alpha  occ. eigenvalues --   -0.39520  -0.38332  -0.37454  -0.34978  -0.33114
 Alpha  occ. eigenvalues --   -0.31374  -0.29513  -0.27770
 Alpha virt. eigenvalues --   -0.00132   0.01004   0.08789   0.10249   0.11416
 Alpha virt. eigenvalues --    0.12428   0.13589   0.15007   0.16668   0.17323
 Alpha virt. eigenvalues --    0.17800   0.17999   0.18309   0.18493   0.18895

 Mulliken charges:
               1
     1  C   -0.235132
     2  C   -0.077170
     3  C   -0.197528
     4  C   -0.091609
     5  C   -0.182670
     6  C    0.342738
     7  H    0.193327
     8  C    0.830435
     9  H    0.211365
    10  C    0.831476
    11  H    0.240872
    12  N   -0.800521
    13  F   -0.270297
    14  F   -0.277074
    15  F   -0.281094
    16  F   -0.277848
    17  F   -0.282471
    18  F   -0.270382
    19  H    0.423056
    20  C    0.744429
    21  O   -0.547643
    22  N   -0.662208
    23  H    0.357265
    24  C   -0.305705
    25  C   -0.295552
    26  C   -0.018658
    27  C    0.014062
    28  C   -0.313036
    29  C   -0.303961
    30  H    0.154006
    31  H    0.170125
    32  H    0.163790
    33  H    0.164500
    34  H    0.163070
    35  N   -0.487752
    36  H    0.155835
    37  H    0.156559
    38  H    0.169445
    39  H    0.157414
    40  H    0.167187
    41  C   -0.339096
    42  C   -0.339660
    43  H    0.183417
    44  H    0.175271
    45  H    0.162814
    46  H    0.179095
    47  H    0.151296
    48  H    0.194220
 Sum of Mulliken charges =  -0.00000

 Dipole moment (field-independent basis, Debye):
    X=              8.4105    Y=              3.0065    Z=              0.9069  Tot=              8.9777
 Quadrupole moment (field-independent basis, Debye-Ang):
   XX=           -142.7032   YY=           -166.3455   ZZ=           -155.7246
   XY=             -1.3281   XZ=             -0.6741   YZ=             -4.5387

 Normal termination of Gaussian 16 at Sat Dec  9 23:05:16 2023.
