 Gaussian 16, Revision C.01,
 Gaussian 16:  ES64L-G16RevC.01  3-Jul-2019

 ----------------------------------------------------------------------
 # m062x 6-31g(d) scrf=(iefpcm,solvent=benzene) opt=(maxcycles=50,maxst
 ep=10)
 ----------------------------------------------------------------------

 -------------
 Molecule Name
 -------------
 Symbolic Z-matrix:
 Charge =  1 Multiplicity = 1

 SCF Done:  E(RM062X) =  -883.922759870     A.U. after   13 cycles
 SCF Done:  E(RM062X) =  -883.931856574     A.U. after   11 cycles
 SCF Done:  E(RM062X) =  -883.939996116     A.U. after   12 cycles
 SCF Done:  E(RM062X) =  -883.940635111     A.U. after   12 cycles
 SCF Done:  E(RM062X) =  -883.940781603     A.U. after   12 cycles
 SCF Done:  E(RM062X) =  -883.941799983     A.U. after   12 cycles
 SCF Done:  E(RM062X) =  -883.941786041     A.U. after   11 cycles
 SCF Done:  E(RM062X) =  -883.941902410     A.U. after   10 cycles
 SCF Done:  E(RM062X) =  -883.941941920     A.U. after   10 cycles
 SCF Done:  E(RM062X) =  -883.941989564     A.U. after   11 cycles
 SCF Done:  E(RM062X) =  -883.942233211     A.U. after    9 cycles
 SCF Done:  E(RM062X) =  -883.942235775     A.U. after    8 cycles
 SCF Done:  E(RM062X) =  -883.942236312     A.U. after    8 cycles
 SCF Done:  E(RM062X) =  -883.942236314     A.U. after    8 cycles
 SCF Done:  E(RM062X) =  -883.942236368     A.U. after    8 cycles
 SCF Done:  E(RM062X) =  -883.942235711     A.U. after    9 cycles
 SCF Done:  E(RM062X) =  -883.942236175     A.U. after    8 cycles
 SCF Done:  E(RM062X) =  -883.942237606     A.U. after    7 cycles
 SCF Done:  E(RM062X) =  -883.942236965     A.U. after    9 cycles
 SCF Done:  E(RM062X) =  -883.942237757     A.U. after    8 cycles
 Optimization completed.
    -- Stationary point found.

                         Standard orientation:
 ---------------------------------------------------------------------
 Center     Atomic      Atomic             Coordinates (Angstroms)
 Number     Number       Type             X           Y           Z
 ---------------------------------------------------------------------
      1          8           0       -0.726853   -2.181084   -1.283432
      2          6           0       -0.093711   -0.934404   -1.113246
      3          6           0       -1.048364   -0.019452   -0.335885
      4          1           0        0.109652   -0.479001   -2.095105
      5          6           0        1.205529   -1.033344   -0.331995
      6          1           0       -0.525334    0.928818   -0.180188
      7          6           0       -1.547320   -0.584957    1.002698
      8          7           0       -2.275459    0.364839   -1.148074
      9          6           0        2.170131    0.020090   -0.364177
     10          6           0        1.452476   -2.129359    0.452587
     11          6           0       -2.995656   -0.121626    1.228701
     12          1           0       -0.882219   -0.247728    1.800425
     13          1           0       -1.509578   -1.678547    0.980579
     14          6           0       -3.327817   -0.725172   -1.174841
     15          6           0       -2.868250    1.622251   -0.555316
     16          6           0        2.046549    1.199657   -1.147777
     17          6           0        3.332080   -0.139084    0.444134
     18          6           0        2.649923   -2.184438    1.211315
     19          1           0        0.744024   -2.949142    0.503165
     20          6           0       -3.901115   -0.877479    0.246042
     21          1           0       -3.299050   -0.333950    2.256832
     22          6           0       -3.134815    1.388504    0.953512
     23          1           0       -2.829192   -1.624662   -1.528488
     24          1           0       -4.074977   -0.408584   -1.904119
     25          1           0       -2.150254    2.427478   -0.730870
     26          1           0       -3.777690    1.832011   -1.122087
     27          6           0        3.019024    2.168125   -1.115265
     28          1           0        1.186320    1.342611   -1.795502
     29          6           0        4.319522    0.879371    0.456982
     30          7           0        3.553778   -1.238676    1.221651
     31          1           0        2.845445   -3.054443    1.834546
     32          1           0       -3.944045   -1.938552    0.502400
     33          1           0       -4.920246   -0.482884    0.292918
     34          1           0       -4.176854    1.662750    1.148381
     35          6           0       -2.242329    2.255941    1.840433
     36          6           0        4.165882    2.010131   -0.302354
     37          1           0        5.189581    0.721576    1.085325
     38          1           0       -2.431021    3.316753    1.654246
     39          1           0       -2.447100    2.057451    2.896040
     40          1           0       -1.176864    2.073240    1.665777
     41          1           0        4.924800    2.785206   -0.289527
     42          1           0       -0.124583   -2.774018   -1.760293
     43          1           0       -1.987085    0.560121   -2.112019
     44          1           0        2.912421    3.060503   -1.723298
 ---------------------------------------------------------------------

 The electronic state is 1-A.
 Alpha  occ. eigenvalues --  -19.72222 -14.95528 -14.80301 -10.69115 -10.68673
 Alpha  occ. eigenvalues --  -10.67641 -10.66843 -10.63222 -10.63175 -10.63072
 Alpha  occ. eigenvalues --  -10.62779 -10.62355 -10.61857 -10.61832 -10.61758
 Alpha  occ. eigenvalues --  -10.60881 -10.60813 -10.60286 -10.59789 -10.59462
 Alpha  occ. eigenvalues --  -10.59385  -1.23402  -1.19933  -1.10111  -1.00570
 Alpha  occ. eigenvalues --   -1.00270  -0.98643  -0.95584  -0.95014  -0.89442
 Alpha  occ. eigenvalues --   -0.88435  -0.87000  -0.85427  -0.81649  -0.79526
 Alpha  occ. eigenvalues --   -0.77073  -0.76429  -0.76097  -0.73050  -0.71500
 Alpha  occ. eigenvalues --   -0.68595  -0.67394  -0.65703  -0.64955  -0.64190
 Alpha  occ. eigenvalues --   -0.63778  -0.61813  -0.58893  -0.58052  -0.57411
 Alpha  occ. eigenvalues --   -0.56813  -0.56562  -0.55900  -0.55091  -0.54920
 Alpha  occ. eigenvalues --   -0.53824  -0.53448  -0.53228  -0.52809  -0.52512
 Alpha  occ. eigenvalues --   -0.51970  -0.50602  -0.49155  -0.48387  -0.46766
 Alpha  occ. eigenvalues --   -0.46554  -0.45357  -0.45097  -0.44441  -0.43994
 Alpha  occ. eigenvalues --   -0.43847  -0.42597  -0.40451  -0.36497  -0.34628
 Alpha  occ. eigenvalues --   -0.32836
 Alpha virt. eigenvalues --   -0.07067  -0.03063   0.00379   0.00923   0.05196
 Alpha virt. eigenvalues --    0.05836   0.06601   0.07318   0.08010   0.09442
 Alpha virt. eigenvalues --    0.09518   0.09891   0.10804   0.11020   0.11630

 Mulliken charges:
               1
     1  O   -0.660582
     2  C    0.058675
     3  C   -0.019837
     4  H    0.181638
     5  C    0.047491
     6  H    0.215645
     7  C   -0.330088
     8  N   -0.581123
     9  C    0.089143
    10  C   -0.241734
    11  C   -0.164214
    12  H    0.214571
    13  H    0.210169
    14  C   -0.209993
    15  C   -0.200223
    16  C   -0.209503
    17  C    0.203462
    18  C    0.033460
    19  H    0.195899
    20  C   -0.330857
    21  H    0.205693
    22  C   -0.149339
    23  H    0.265024
    24  H    0.227936
    25  H    0.229152
    26  H    0.232290
    27  C   -0.171377
    28  H    0.151794
    29  C   -0.156844
    30  N   -0.495543
    31  H    0.196851
    32  H    0.212729
    33  H    0.198903
    34  H    0.201487
    35  C   -0.502548
    36  C   -0.172849
    37  H    0.201297
    38  H    0.190617
    39  H    0.195595
    40  H    0.170698
    41  H    0.196701
    42  H    0.451992
    43  H    0.427906
    44  H    0.189838
 Sum of Mulliken charges =   1.00000

 Dipole moment (field-independent basis, Debye):
    X=             -9.7888    Y=              1.6777    Z=             -4.5612  Tot=             10.9288
 Quadrupole moment (field-independent basis, Debye-Ang):
   XX=            -88.5998   YY=           -102.0134   ZZ=           -109.1183
   XY=              0.4716   XZ=              2.3403   YZ=             -1.4035

 Normal termination of Gaussian 16 at Sat Dec  9 23:12:54 2023.
