 Gaussian 16, Revision C.01,
 Gaussian 16:  ES64L-G16RevC.01  3-Jul-2019

 ----------------------------------------------------------------------
 # m062x 6-31g(d) scrf=(iefpcm,solvent=benzene) opt=(maxcycles=50,maxst
 ep=10)
 ----------------------------------------------------------------------

 -------------
 Structure1516
 -------------
 Symbolic Z-matrix:
 Charge =  0 Multiplicity = 2

 SCF Done:  E(UM062X) =  -1492.74791951     A.U. after   25 cycles
 SCF Done:  E(UM062X) =  -1492.75731124     A.U. after   19 cycles
 SCF Done:  E(UM062X) =  -1492.76605937     A.U. after   19 cycles
 SCF Done:  E(UM062X) =  -1492.77361788     A.U. after   18 cycles
 SCF Done:  E(UM062X) =  -1492.78276126     A.U. after   17 cycles
 SCF Done:  E(UM062X) =  -1492.78771822     A.U. after   16 cycles
 SCF Done:  E(UM062X) =  -1492.79113087     A.U. after   16 cycles
 SCF Done:  E(UM062X) =  -1492.79149425     A.U. after   14 cycles
 SCF Done:  E(UM062X) =  -1492.79170697     A.U. after   14 cycles
 SCF Done:  E(UM062X) =  -1492.79179986     A.U. after   14 cycles
 SCF Done:  E(UM062X) =  -1492.79183299     A.U. after   13 cycles
 SCF Done:  E(UM062X) =  -1492.79185897     A.U. after   12 cycles
 SCF Done:  E(UM062X) =  -1492.79187082     A.U. after   11 cycles
 SCF Done:  E(UM062X) =  -1492.79187497     A.U. after   11 cycles
 SCF Done:  E(UM062X) =  -1492.79187613     A.U. after   10 cycles
 SCF Done:  E(UM062X) =  -1492.79187666     A.U. after    9 cycles
 SCF Done:  E(UM062X) =  -1492.79187697     A.U. after    9 cycles
 SCF Done:  E(UM062X) =  -1492.79187716     A.U. after    9 cycles
 SCF Done:  E(UM062X) =  -1492.79187717     A.U. after    8 cycles
 SCF Done:  E(UM062X) =  -1492.79187714     A.U. after    7 cycles
 Optimization completed.
    -- Stationary point found.

                         Standard orientation:
 ---------------------------------------------------------------------
 Center     Atomic      Atomic             Coordinates (Angstroms)
 Number     Number       Type             X           Y           Z
 ---------------------------------------------------------------------
      1          6           0       -2.330776    2.585590   -0.288492
      2          6           0       -3.487180    1.851495   -0.291971
      3          6           0       -3.484752    0.475618    0.073969
      4          6           0       -2.292295   -0.112553    0.433578
      5          1           0       -2.346151    3.635107   -0.571025
      6          1           0       -4.426486    2.315584   -0.573380
      7          1           0       -2.270240   -1.161890    0.714019
      8          6           0       -1.078589    0.619735    0.444377
      9          6           0       -1.094153    1.994080    0.079114
     10          6           0        0.127382    2.716629    0.078798
     11          6           0        1.298613    2.097065    0.427069
     12          6           0        1.330100    0.729474    0.830532
     13          6           0        0.153934    0.021148    0.824188
     14          1           0        0.143473    3.763376   -0.214473
     15          8           0        2.489700    2.787997    0.369226
     16          1           0        0.162988   -1.026310    1.117768
     17          6           0        4.685131   -1.256022    2.572972
     18          6           0        4.190189   -0.094739    3.119740
     19          6           0        3.122056    0.561412    2.492634
     20          6           0        2.599791    0.097411    1.291721
     21          1           0        5.463496   -1.819339    3.081543
     22          1           0        4.586046    0.286328    4.056256
     23          1           0        2.660551    1.424556    2.963188
     24          6           0        3.195671   -1.013144    0.631290
     25          6           0        4.185999   -1.759345    1.346835
     26          6           0        4.624841   -3.021115    0.857918
     27          6           0        4.077459   -3.543591   -0.301831
     28          6           0        3.193931   -2.798527   -1.074189
     29          6           0        2.821908   -1.474839   -0.706101
     30          1           0        5.358746   -3.577549    1.433073
     31          1           0        4.378560   -4.529271   -0.646052
     32          1           0        2.877119   -3.176094   -2.040120
     33          6           0        2.180069   -0.672285   -1.675938
     34          7           0        1.433783   -1.284978   -2.673742
     35          1           0        1.042779   -0.671178   -3.376305
     36          7           0        2.306642    0.684141   -1.786829
     37          1           0        0.779660   -1.989425   -2.354221
     38          1           0        1.557145    1.177562   -2.259143
     39          6           0        3.494346    1.472641   -1.480448
     40          6           0        4.366164    1.650170   -2.725335
     41          6           0        3.079788    2.834180   -0.922468
     42          1           0        4.059875    0.945175   -0.709015
     43          1           0        3.831681    2.220230   -3.493904
     44          1           0        5.294138    2.178219   -2.485415
     45          1           0        4.619858    0.670454   -3.138094
     46          1           0        2.390415    3.324145   -1.630193
     47          1           0        3.964060    3.467028   -0.817383
     48          6           0       -7.164171   -1.754652    0.034455
     49          6           0       -6.043440   -2.266668   -0.605539
     50          6           0       -4.850060   -1.542472   -0.588319
     51          6           0       -4.751780   -0.300950    0.060193
     52          6           0       -5.905584    0.182975    0.698551
     53          6           0       -7.104247   -0.531465    0.689058
     54          1           0       -8.093349   -2.315263    0.024049
     55          1           0       -6.086532   -3.222727   -1.120105
     56          8           0       -3.735906   -2.014481   -1.214548
     57          8           0       -5.803204    1.378045    1.342247
     58          1           0       -7.976574   -0.128573    1.196208
     59          1           0       -3.952748   -2.858133   -1.637569
     60          1           0       -6.648272    1.577826    1.770716
 ---------------------------------------------------------------------

 The electronic state is 2-A.
 Alpha  occ. eigenvalues --  -19.67199 -19.67091 -19.65432 -14.77989 -14.77239
 Alpha  occ. eigenvalues --  -10.62159 -10.61819 -10.61761 -10.60315 -10.60066
 Alpha  occ. eigenvalues --  -10.58832 -10.55910 -10.55652 -10.55552 -10.55497
 Alpha  occ. eigenvalues --  -10.55364 -10.55233 -10.55095 -10.54802 -10.54706
 Alpha  occ. eigenvalues --  -10.54679 -10.54638 -10.54571 -10.54517 -10.54496
 Alpha  occ. eigenvalues --  -10.54483 -10.54239 -10.54210 -10.54045 -10.53539
 Alpha  occ. eigenvalues --  -10.53381 -10.53357 -10.52991 -10.52853 -10.52310
 Alpha  occ. eigenvalues --   -1.18693  -1.18447  -1.17652  -1.07873  -0.99616
 Alpha  occ. eigenvalues --   -0.97892  -0.96367  -0.95543  -0.92534  -0.90496
 Alpha  occ. eigenvalues --   -0.88291  -0.87566  -0.85845  -0.85370  -0.83050
 Alpha  occ. eigenvalues --   -0.82901  -0.81956  -0.80735  -0.79323  -0.77380
 Alpha  occ. eigenvalues --   -0.73828  -0.72641  -0.71643  -0.70677  -0.69912
 Alpha  occ. eigenvalues --   -0.68045  -0.67365  -0.67181  -0.66127  -0.64307
 Alpha  occ. eigenvalues --   -0.64139  -0.61561  -0.59962  -0.58945  -0.58866
 Alpha  occ. eigenvalues --   -0.58189  -0.57022  -0.56636  -0.55912  -0.55404
 Alpha  occ. eigenvalues --   -0.54578  -0.54254  -0.53681  -0.53116  -0.52369
 Alpha  occ. eigenvalues --   -0.51149  -0.50895  -0.50406  -0.49755  -0.49271
 Alpha  occ. eigenvalues --   -0.49143  -0.48019  -0.47566  -0.47095  -0.46936
 Alpha  occ. eigenvalues --   -0.46607  -0.46116  -0.45447  -0.45366  -0.44956
 Alpha  occ. eigenvalues --   -0.44772  -0.44294  -0.44095  -0.43731  -0.43314
 Alpha  occ. eigenvalues --   -0.42611  -0.42188  -0.41011  -0.40453  -0.39553
 Alpha  occ. eigenvalues --   -0.38888  -0.38191  -0.38167  -0.37796  -0.37033
 Alpha  occ. eigenvalues --   -0.36655  -0.34580  -0.33708  -0.32783  -0.32059
 Alpha  occ. eigenvalues --   -0.29298  -0.28462  -0.27203  -0.27031  -0.25529
 Alpha  occ. eigenvalues --   -0.24467  -0.14766
 Alpha virt. eigenvalues --   -0.00603   0.01184   0.02932   0.03821   0.05098
 Alpha virt. eigenvalues --    0.05384   0.07590   0.09374   0.11291   0.11303
 Alpha virt. eigenvalues --    0.12976   0.13670   0.13810   0.14302   0.15315

  Beta  occ. eigenvalues --  -19.67199 -19.67091 -19.65433 -14.77836 -14.77118
  Beta  occ. eigenvalues --  -10.61897 -10.61819 -10.61760 -10.60315 -10.60073
  Beta  occ. eigenvalues --  -10.58833 -10.55910 -10.55649 -10.55554 -10.55498
  Beta  occ. eigenvalues --  -10.55358 -10.55229 -10.55035 -10.54836 -10.54706
  Beta  occ. eigenvalues --  -10.54680 -10.54644 -10.54571 -10.54508 -10.54498
  Beta  occ. eigenvalues --  -10.54483 -10.54300 -10.54260 -10.54037 -10.53567
  Beta  occ. eigenvalues --  -10.53320 -10.53297 -10.53067 -10.52664 -10.52087
  Beta  occ. eigenvalues --   -1.18693  -1.18447  -1.17653  -1.07200  -0.99092
  Beta  occ. eigenvalues --   -0.97879  -0.96252  -0.95509  -0.92486  -0.90243
  Beta  occ. eigenvalues --   -0.88187  -0.87461  -0.85665  -0.85332  -0.83039
  Beta  occ. eigenvalues --   -0.82691  -0.81717  -0.80703  -0.79169  -0.77348
  Beta  occ. eigenvalues --   -0.73122  -0.72620  -0.71500  -0.70541  -0.69804
  Beta  occ. eigenvalues --   -0.67889  -0.67316  -0.67061  -0.66057  -0.64303
  Beta  occ. eigenvalues --   -0.63857  -0.61329  -0.59822  -0.58917  -0.58628
  Beta  occ. eigenvalues --   -0.58160  -0.56734  -0.56461  -0.55623  -0.55268
  Beta  occ. eigenvalues --   -0.54442  -0.54105  -0.53589  -0.53079  -0.52292
  Beta  occ. eigenvalues --   -0.51130  -0.50856  -0.50379  -0.49672  -0.49072
  Beta  occ. eigenvalues --   -0.48957  -0.47896  -0.47535  -0.47065  -0.46899
  Beta  occ. eigenvalues --   -0.46354  -0.45952  -0.45330  -0.45270  -0.44831
  Beta  occ. eigenvalues --   -0.44342  -0.44078  -0.43881  -0.43715  -0.43050
  Beta  occ. eigenvalues --   -0.42358  -0.41999  -0.40876  -0.39925  -0.39462
  Beta  occ. eigenvalues --   -0.38837  -0.38167  -0.37892  -0.37532  -0.36730
  Beta  occ. eigenvalues --   -0.35912  -0.34261  -0.33637  -0.31793  -0.31347
  Beta  occ. eigenvalues --   -0.29056  -0.27484  -0.27187  -0.26564  -0.25157
  Beta  occ. eigenvalues --   -0.23659
  Beta virt. eigenvalues --   -0.01917  -0.00493   0.01484   0.03889   0.04643
  Beta virt. eigenvalues --    0.05313   0.05386   0.07692   0.10920   0.11303
  Beta virt. eigenvalues --    0.11525   0.12979   0.13685   0.13878   0.14391

 Mulliken charges and spin densities:
               1          2
     1  C   -0.220022   0.002690
     2  C   -0.168118  -0.002189
     3  C    0.065763   0.003863
     4  C   -0.217331  -0.002805
     5  H    0.166228  -0.000129
     6  H    0.170650   0.000084
     7  H    0.172642   0.000108
     8  C    0.079632   0.005433
     9  C    0.080922  -0.003080
    10  C   -0.265598   0.011893
    11  C    0.308489  -0.006361
    12  C    0.019289   0.007796
    13  C   -0.248807  -0.008518
    14  H    0.168579  -0.000603
    15  O   -0.556918  -0.000184
    16  H    0.176658   0.000243
    17  C   -0.217215   0.087551
    18  C   -0.180641  -0.049004
    19  C   -0.181042   0.099056
    20  C   -0.016345  -0.044031
    21  H    0.158480  -0.004087
    22  H    0.162931   0.001718
    23  H    0.164700  -0.004993
    24  C   -0.000383   0.083492
    25  C    0.077707  -0.078061
    26  C   -0.230920   0.320908
    27  C   -0.177798  -0.110222
    28  C   -0.218334   0.282999
    29  C    0.021524  -0.051197
    30  H    0.148625  -0.015920
    31  H    0.153241   0.002996
    32  H    0.157245  -0.014887
    33  C    0.404998   0.341169
    34  N   -0.803811   0.065525
    35  H    0.352057  -0.004017
    36  N   -0.659104   0.074989
    37  H    0.363700   0.000020
    38  H    0.341724   0.001849
    39  C   -0.025391  -0.002886
    40  C   -0.471433   0.006382
    41  C   -0.048585   0.000741
    42  H    0.206749   0.000714
    43  H    0.153782  -0.000260
    44  H    0.170702   0.001634
    45  H    0.183507  -0.000599
    46  H    0.139052  -0.000112
    47  H    0.184730   0.000001
    48  C   -0.176871   0.000332
    49  C   -0.234212  -0.000156
    50  C    0.296090   0.000353
    51  C   -0.034582  -0.000470
    52  C    0.294861   0.000341
    53  C   -0.232646  -0.000154
    54  H    0.177766  -0.000017
    55  H    0.162816   0.000008
    56  O   -0.674737   0.000026
    57  O   -0.671324   0.000024
    58  H    0.163794   0.000008
    59  H    0.440548  -0.000002
    60  H    0.441984  -0.000005
 Sum of Mulliken charges =  -0.00000   1.00000

 Dipole moment (field-independent basis, Debye):
    X=             -5.2456    Y=              0.4117    Z=             -4.5550  Tot=              6.9594
 Quadrupole moment (field-independent basis, Debye-Ang):
   XX=           -170.5361   YY=           -186.3680   ZZ=           -190.3945
   XY=             14.3575   XZ=             -7.0232   YZ=              0.4895

 Normal termination of Gaussian 16 at Sat Dec  9 23:54:49 2023.
