 Gaussian 16, Revision C.01,
 Gaussian 16:  ES64L-G16RevC.01  3-Jul-2019

 ----------------------------------------------------------------------
 # m062x 6-31g(d) scrf=(iefpcm,solvent=benzene) opt=(maxcycles=50,maxst
 ep=10)
 ----------------------------------------------------------------------

 ------------
 Structure506
 ------------
 Symbolic Z-matrix:
 Charge =  0 Multiplicity = 1

 SCF Done:  E(RM062X) =  -727.909778776     A.U. after   14 cycles
 SCF Done:  E(RM062X) =  -727.918186954     A.U. after   12 cycles
 SCF Done:  E(RM062X) =  -727.925602275     A.U. after   13 cycles
 SCF Done:  E(RM062X) =  -727.925976217     A.U. after   14 cycles
 SCF Done:  E(RM062X) =  -727.926401276     A.U. after   14 cycles
 SCF Done:  E(RM062X) =  -727.926968091     A.U. after   13 cycles
 SCF Done:  E(RM062X) =  -727.926836131     A.U. after   13 cycles
 SCF Done:  E(RM062X) =  -727.927474483     A.U. after   13 cycles
 SCF Done:  E(RM062X) =  -727.927796197     A.U. after   13 cycles
 SCF Done:  E(RM062X) =  -727.928202070     A.U. after   16 cycles
 SCF Done:  E(RM062X) =  -727.928660211     A.U. after   12 cycles
 SCF Done:  E(RM062X) =  -727.928662684     A.U. after   11 cycles
 SCF Done:  E(RM062X) =  -727.928662475     A.U. after    9 cycles
 SCF Done:  E(RM062X) =  -727.928662480     A.U. after    8 cycles
 SCF Done:  E(RM062X) =  -727.928662482     A.U. after    9 cycles
 SCF Done:  E(RM062X) =  -727.928662675     A.U. after   10 cycles
 SCF Done:  E(RM062X) =  -727.928662415     A.U. after   10 cycles
 SCF Done:  E(RM062X) =  -727.928662377     A.U. after    8 cycles
 SCF Done:  E(RM062X) =  -727.928662635     A.U. after   10 cycles
 SCF Done:  E(RM062X) =  -727.928662364     A.U. after   10 cycles
 Optimization completed.
    -- Stationary point found.

                         Standard orientation:
 ---------------------------------------------------------------------
 Center     Atomic      Atomic             Coordinates (Angstroms)
 Number     Number       Type             X           Y           Z
 ---------------------------------------------------------------------
      1          6           0       -5.822875   -0.064207   -0.419431
      2          6           0       -5.090563    1.111173   -0.580212
      3          6           0       -3.720174    1.114902   -0.352117
      4          6           0       -3.073367   -0.065881    0.040524
      5          6           0       -3.813848   -1.246217    0.200799
      6          6           0       -5.183862   -1.240414   -0.029581
      7          1           0       -6.893400   -0.063661   -0.598635
      8          1           0       -5.588804    2.025977   -0.884234
      9          1           0       -3.139789    2.023396   -0.474794
     10          6           0       -1.661784   -0.068700    0.278017
     11          1           0       -3.304621   -2.154987    0.503939
     12          1           0       -5.754729   -2.154829    0.094635
     13          6           0       -0.467791   -0.089572    0.482882
     14          6           0        0.966614   -0.074447    0.724843
     15          8           0        1.568865   -1.069707    1.072223
     16          6           0        1.649773    1.264973    0.529656
     17          1           0        1.435943    1.608143   -0.488285
     18          1           0        1.189087    1.987164    1.213447
     19          6           0        3.145886    1.155937    0.764085
     20          1           0        3.617490    2.143380    0.713974
     21          1           0        3.367213    0.736823    1.748241
     22          6           0        3.789990    0.280687   -0.287361
     23          8           0        3.291003   -0.003640   -1.350078
     24          8           0        5.010642   -0.120723    0.088200
     25          6           0        5.696539   -0.940054   -0.860549
     26          1           0        6.656204   -1.179832   -0.406333
     27          1           0        5.839025   -0.398661   -1.798141
     28          1           0        5.125082   -1.849443   -1.055910
 ---------------------------------------------------------------------

 The electronic state is 1-A.
 Alpha  occ. eigenvalues --  -19.68287 -19.64547 -19.62839 -10.67864 -10.66116
 Alpha  occ. eigenvalues --  -10.59410 -10.58660 -10.57385 -10.56894 -10.56816
 Alpha  occ. eigenvalues --  -10.56566 -10.56309 -10.56268 -10.56218 -10.56139
 Alpha  occ. eigenvalues --  -10.55769  -1.23109  -1.17627  -1.13484  -0.97820
 Alpha  occ. eigenvalues --   -0.90944  -0.89317  -0.85541  -0.84966  -0.82448
 Alpha  occ. eigenvalues --   -0.77159  -0.71887  -0.70059  -0.67874  -0.63964
 Alpha  occ. eigenvalues --   -0.61868  -0.59457  -0.58388  -0.56353  -0.55663
 Alpha  occ. eigenvalues --   -0.55505  -0.53310  -0.52969  -0.51793  -0.50940
 Alpha  occ. eigenvalues --   -0.49940  -0.48260  -0.47635  -0.45976  -0.44435
 Alpha  occ. eigenvalues --   -0.43459  -0.42767  -0.42513  -0.42079  -0.41753
 Alpha  occ. eigenvalues --   -0.37752  -0.36804  -0.34852  -0.34479  -0.33844
 Alpha  occ. eigenvalues --   -0.31781  -0.29490
 Alpha virt. eigenvalues --   -0.03468   0.02357   0.04145   0.06625   0.07894
 Alpha virt. eigenvalues --    0.13287   0.14789   0.15464   0.16882   0.18362
 Alpha virt. eigenvalues --    0.18605   0.19183   0.19776   0.20923   0.21312

 Mulliken charges:
               1
     1  C   -0.158567
     2  C   -0.172214
     3  C   -0.148195
     4  C    0.012708
     5  C   -0.141344
     6  C   -0.174166
     7  H    0.183699
     8  H    0.184025
     9  H    0.191030
    10  C   -0.042831
    11  H    0.198225
    12  H    0.185251
    13  C   -0.077483
    14  C    0.385182
    15  O   -0.455364
    16  C   -0.391446
    17  H    0.214783
    18  H    0.205061
    19  C   -0.394183
    20  H    0.211055
    21  H    0.209556
    22  C    0.656330
    23  O   -0.506221
    24  O   -0.487699
    25  C   -0.248508
    26  H    0.187816
    27  H    0.182584
    28  H    0.190917
 Sum of Mulliken charges =  -0.00000

 Dipole moment (field-independent basis, Debye):
    X=             -2.1435    Y=              2.4751    Z=              0.1458  Tot=              3.2775
 Quadrupole moment (field-independent basis, Debye-Ang):
   XX=            -60.4801   YY=            -83.8952   ZZ=            -96.6963
   XY=              2.4766   XZ=              1.2958   YZ=              1.6781

 1\1\GINC-NODE-003\FOpt\RM062X\6-31G(d)\C13H12O3\JP2658\09-Dec-2023\0\\
 # m062x 6-31g(d) scrf=(iefpcm,solvent=benzene) opt=(maxcycles=50,maxst
 ep=10)\\Structure506\\0,1\C,1.216120356,-0.7970281009,0.1023996573\C,0
 .7503520234,-0.4533720408,-1.1659100619\C,-0.4982740334,0.1376410101,-
 1.3130242857\C,-1.2907200305,0.3884616214,-0.1834697966\C,-0.818162118
 2,0.0414353495,1.0906792599\C,0.4317894467,-0.5491484844,1.2280831265\
 H,2.1922284368,-1.258484744,0.2137930094\H,1.3618560362,-0.6462095847,
 -2.0413620773\H,-0.8709051037,0.4101016541,-2.2949455652\C,-2.57856544

 Normal termination of Gaussian 16 at Sat Dec  9 22:53:23 2023.
