 Gaussian 16, Revision C.01,
 Gaussian 16:  ES64L-G16RevC.01  3-Jul-2019

 ----------------------------------------------------------------------
 # m062x 6-31g(d) scrf=(iefpcm,solvent=benzene) opt=(maxcycles=50,maxst
 ep=10)
 ----------------------------------------------------------------------

 ----------
 Structure2
 ----------
 Symbolic Z-matrix:
 Charge =  0 Multiplicity = 2

 SCF Done:  E(UM062X) =  -1148.12694377     A.U. after   19 cycles
 SCF Done:  E(UM062X) =  -1148.13472824     A.U. after   15 cycles
 SCF Done:  E(UM062X) =  -1148.13392164     A.U. after   16 cycles
 SCF Done:  E(UM062X) =  -1148.14114996     A.U. after   14 cycles
 SCF Done:  E(UM062X) =  -1148.14222671     A.U. after   14 cycles
 SCF Done:  E(UM062X) =  -1148.14242936     A.U. after   15 cycles
 SCF Done:  E(UM062X) =  -1148.14262169     A.U. after   14 cycles
 SCF Done:  E(UM062X) =  -1148.14351336     A.U. after   13 cycles
 SCF Done:  E(UM062X) =  -1148.14410170     A.U. after   14 cycles
 SCF Done:  E(UM062X) =  -1148.14462717     A.U. after   18 cycles
 SCF Done:  E(UM062X) =  -1148.14743495     A.U. after   14 cycles
 SCF Done:  E(UM062X) =  -1148.14751729     A.U. after   13 cycles
 SCF Done:  E(UM062X) =  -1148.14755380     A.U. after   11 cycles
 SCF Done:  E(UM062X) =  -1148.14756748     A.U. after   12 cycles
 SCF Done:  E(UM062X) =  -1148.14757298     A.U. after   10 cycles
 SCF Done:  E(UM062X) =  -1148.14757458     A.U. after   11 cycles
 SCF Done:  E(UM062X) =  -1148.14757569     A.U. after   11 cycles
 SCF Done:  E(UM062X) =  -1148.14757607     A.U. after   10 cycles
 SCF Done:  E(UM062X) =  -1148.14757621     A.U. after    7 cycles
 SCF Done:  E(UM062X) =  -1148.14757627     A.U. after    6 cycles
 Optimization completed.
    -- Stationary point found.

                         Standard orientation:
 ---------------------------------------------------------------------
 Center     Atomic      Atomic             Coordinates (Angstroms)
 Number     Number       Type             X           Y           Z
 ---------------------------------------------------------------------
      1          6           0        2.677427   -0.574296   -0.647059
      2          6           0        2.907142   -0.221296    0.841256
      3          6           0        3.627681    1.124800    0.991223
      4          6           0        4.948883    1.128939    0.221301
      5          6           0        4.715968    0.803865   -1.255004
      6          6           0        4.002679   -0.539566   -1.410496
      7          1           0        2.008180    0.184989   -1.064296
      8          7           0        2.061824   -1.895052   -0.842765
      9          1           0        3.570739   -0.999103    1.249145
     10          7           0        1.699570   -0.293165    1.658470
     11          1           0        3.791402    1.312803    2.057500
     12          1           0        2.970607    1.915480    0.615997
     13          1           0        5.440013    2.101902    0.326093
     14          1           0        5.629722    0.380992    0.651860
     15          1           0        4.100455    1.593968   -1.705736
     16          1           0        5.664557    0.787413   -1.801701
     17          1           0        4.651867   -1.340671   -1.024312
     18          1           0        3.808755   -0.769158   -2.462937
     19          1           0        2.649225   -2.633120   -0.464219
     20          1           0        1.540357   -1.190399    2.096590
     21          7           0       -0.182939   -1.277531   -1.128357
     22          6           0        0.724244   -2.110546   -0.509071
     23          6           0        0.260200   -3.101012    0.321722
     24          6           0       -1.126017   -3.261691    0.545847
     25          1           0       -1.490029   -4.050478    1.194780
     26          7           0        0.548670    1.376909    0.516449
     27          6           0        0.535775    0.389006    1.385703
     28          6           0       -0.649462   -0.027848    2.083936
     29          6           0       -1.817815    0.620216    1.836737
     30          1           0       -2.739946    0.311721    2.322817
     31          6           0       -1.846774    1.695242    0.902677
     32          6           0       -0.625650    2.027504    0.262242
     33          6           0       -0.628125    3.062559   -0.706078
     34          6           0       -1.794015    3.720115   -1.023316
     35          6           0       -3.009652    3.382665   -0.386641
     36          6           0       -3.029929    2.386879    0.561844
     37          1           0        0.314025    3.310561   -1.185587
     38          1           0       -1.782573    4.508125   -1.770580
     39          1           0       -3.921692    3.908554   -0.650104
     40          1           0       -3.958383    2.103117    1.051319
     41          6           0       -2.052336   -2.359631   -0.045746
     42          6           0       -1.557782   -1.334850   -0.903236
     43          6           0       -2.411513   -0.416139   -1.498844
     44          6           0       -3.785611   -0.474437   -1.251060
     45          6           0       -4.294971   -1.460990   -0.409052
     46          6           0       -3.443556   -2.389339    0.180687
     47          1           0       -1.998230    0.369422   -2.127823
     48          1           0       -4.443117    0.258609   -1.706619
     49          1           0       -5.361947   -1.510357   -0.212787
     50          1           0       -3.842456   -3.160009    0.835141
     51          1           0       -0.599894   -0.868710    2.768793
     52          1           0        0.982290   -3.748133    0.810360
     53          1           0        0.165448   -0.576540   -1.767710
 ---------------------------------------------------------------------

 The electronic state is 2-A.
 Alpha  occ. eigenvalues --  -14.79404 -14.77210 -14.77183 -14.73912 -10.62124
 Alpha  occ. eigenvalues --  -10.61893 -10.58547 -10.58528 -10.58149 -10.57880
 Alpha  occ. eigenvalues --  -10.56089 -10.55127 -10.54937 -10.54914 -10.54857
 Alpha  occ. eigenvalues --  -10.54720 -10.54478 -10.54396 -10.54172 -10.54138
 Alpha  occ. eigenvalues --  -10.53956 -10.53625 -10.53508 -10.53386 -10.53386
 Alpha  occ. eigenvalues --  -10.53316 -10.53224 -10.53054  -1.09562  -1.07521
 Alpha  occ. eigenvalues --   -1.02752  -1.00428  -0.94296  -0.93584  -0.92505
 Alpha  occ. eigenvalues --   -0.89783  -0.89040  -0.84681  -0.84673  -0.82740
 Alpha  occ. eigenvalues --   -0.82155  -0.81921  -0.80514  -0.73529  -0.72049
 Alpha  occ. eigenvalues --   -0.71159  -0.70606  -0.69337  -0.69054  -0.68068
 Alpha  occ. eigenvalues --   -0.67229  -0.64943  -0.61539  -0.60985  -0.60719
 Alpha  occ. eigenvalues --   -0.58873  -0.58149  -0.57502  -0.55821  -0.54432
 Alpha  occ. eigenvalues --   -0.53969  -0.52994  -0.51989  -0.51194  -0.50908
 Alpha  occ. eigenvalues --   -0.50732  -0.50314  -0.49497  -0.48750  -0.48615
 Alpha  occ. eigenvalues --   -0.48316  -0.47397  -0.47259  -0.46181  -0.45854
 Alpha  occ. eigenvalues --   -0.45593  -0.45211  -0.43917  -0.42032  -0.41434
 Alpha  occ. eigenvalues --   -0.41276  -0.40953  -0.40766  -0.39948  -0.39720
 Alpha  occ. eigenvalues --   -0.38711  -0.38486  -0.37782  -0.37634  -0.36185
 Alpha  occ. eigenvalues --   -0.35458  -0.34376  -0.33188  -0.31301  -0.28557
 Alpha  occ. eigenvalues --   -0.27230  -0.26943  -0.24946  -0.14394
 Alpha virt. eigenvalues --   -0.00419   0.03157   0.04019   0.05598   0.07054
 Alpha virt. eigenvalues --    0.10329   0.11680   0.12475   0.13412   0.14643
 Alpha virt. eigenvalues --    0.15013   0.15325   0.15724   0.16550   0.16967

  Beta  occ. eigenvalues --  -14.79147 -14.77200 -14.77128 -14.73905 -10.62125
  Beta  occ. eigenvalues --  -10.61732 -10.58526 -10.58501 -10.58133 -10.57881
  Beta  occ. eigenvalues --  -10.56090 -10.55126 -10.54937 -10.54915 -10.54857
  Beta  occ. eigenvalues --  -10.54811 -10.54478 -10.54393 -10.54169 -10.54138
  Beta  occ. eigenvalues --  -10.53956 -10.53665 -10.53510 -10.53392 -10.53383
  Beta  occ. eigenvalues --  -10.53248 -10.53118 -10.52697  -1.09056  -1.07377
  Beta  occ. eigenvalues --   -1.02492  -1.00314  -0.94210  -0.93390  -0.92384
  Beta  occ. eigenvalues --   -0.89782  -0.88433  -0.84667  -0.84439  -0.82735
  Beta  occ. eigenvalues --   -0.81957  -0.81769  -0.80383  -0.73157  -0.71566
  Beta  occ. eigenvalues --   -0.71124  -0.70381  -0.69120  -0.68800  -0.68031
  Beta  occ. eigenvalues --   -0.67203  -0.64911  -0.61513  -0.60749  -0.60388
  Beta  occ. eigenvalues --   -0.58789  -0.57989  -0.57313  -0.55800  -0.54266
  Beta  occ. eigenvalues --   -0.53618  -0.52618  -0.51877  -0.51081  -0.50810
  Beta  occ. eigenvalues --   -0.50596  -0.50190  -0.49246  -0.48598  -0.48494
  Beta  occ. eigenvalues --   -0.48113  -0.47340  -0.46713  -0.46030  -0.45721
  Beta  occ. eigenvalues --   -0.45431  -0.45106  -0.43508  -0.41939  -0.41286
  Beta  occ. eigenvalues --   -0.41017  -0.40763  -0.40548  -0.39892  -0.39522
  Beta  occ. eigenvalues --   -0.38567  -0.38396  -0.37673  -0.37353  -0.35459
  Beta  occ. eigenvalues --   -0.34279  -0.34008  -0.32216  -0.31264  -0.27953
  Beta  occ. eigenvalues --   -0.26406  -0.25678  -0.24657
  Beta virt. eigenvalues --   -0.01098  -0.00074   0.03218   0.04438   0.06724
  Beta virt. eigenvalues --    0.07654   0.10374   0.11799   0.12917   0.13950
  Beta virt. eigenvalues --    0.14837   0.15171   0.15789   0.16011   0.16686

 Mulliken charges and spin densities:
               1          2
     1  C   -0.029929   0.009302
     2  C    0.026106   0.002797
     3  C   -0.296346   0.001319
     4  C   -0.305477  -0.000040
     5  C   -0.303691  -0.000115
     6  C   -0.292144  -0.000670
     7  H    0.176234  -0.000377
     8  N   -0.670064   0.021057
     9  H    0.138596  -0.000077
    10  N   -0.673212   0.001642
    11  H    0.160818   0.000405
    12  H    0.186350  -0.000085
    13  H    0.162664  -0.000013
    14  H    0.144025   0.000019
    15  H    0.155274  -0.000002
    16  H    0.161364  -0.000026
    17  H    0.139733   0.000090
    18  H    0.171030   0.000346
    19  H    0.337619  -0.001542
    20  H    0.349887   0.001344
    21  N   -0.781779   0.138212
    22  C    0.533065   0.205574
    23  C   -0.266881  -0.046983
    24  C   -0.231465   0.501333
    25  H    0.149671  -0.025265
    26  N   -0.615522   0.004096
    27  C    0.513007  -0.002723
    28  C   -0.212934   0.002301
    29  C   -0.146007  -0.001470
    30  H    0.182288  -0.000073
    31  C    0.096300   0.001496
    32  C    0.214541  -0.001736
    33  C   -0.186537   0.004119
    34  C   -0.179054  -0.001463
    35  C   -0.187027   0.004595
    36  C   -0.197767  -0.002203
    37  H    0.163723  -0.000203
    38  H    0.168800   0.000041
    39  H    0.166912  -0.000216
    40  H    0.168952   0.000124
    41  C    0.119945  -0.110888
    42  C    0.299867   0.065867
    43  C   -0.200865  -0.002577
    44  C   -0.189131   0.144306
    45  C   -0.172374  -0.049100
    46  C   -0.258458   0.161638
    47  H    0.157146  -0.000835
    48  H    0.156039  -0.007788
    49  H    0.155239   0.001083
    50  H    0.152598  -0.008042
    51  H    0.173845  -0.000863
    52  H    0.151348  -0.000656
    53  H    0.363677  -0.007076
 Sum of Mulliken charges =  -0.00000   1.00000

 Dipole moment (field-independent basis, Debye):
    X=              2.8628    Y=             -0.3827    Z=              0.8092  Tot=              2.9995
 Quadrupole moment (field-independent basis, Debye-Ang):
   XX=           -148.9289   YY=           -164.9814   ZZ=           -161.3673
   XY=            -10.5536   XZ=             -3.2383   YZ=            -14.2992

 Normal termination of Gaussian 16 at Sun Dec 10 00:06:14 2023.
