 Gaussian 16, Revision C.01,
 Gaussian 16:  ES64L-G16RevC.01  3-Jul-2019

 ----------------------------------------------------------------------
 # m062x 6-31g(d) scrf=(iefpcm,solvent=benzene) opt=(maxcycles=50,maxst
 ep=10)
 ----------------------------------------------------------------------

 ----------
 Structure1
 ----------
 Symbolic Z-matrix:
 Charge =  0 Multiplicity = 1

 SCF Done:  E(RM062X) =  -1975.56733277     A.U. after   13 cycles
 SCF Done:  E(RM062X) =  -1975.57693523     A.U. after   11 cycles
 SCF Done:  E(RM062X) =  -1975.58347688     A.U. after   11 cycles
 SCF Done:  E(RM062X) =  -1975.58480783     A.U. after   12 cycles
 SCF Done:  E(RM062X) =  -1975.58688747     A.U. after   11 cycles
 SCF Done:  E(RM062X) =  -1975.58708788     A.U. after   11 cycles
 SCF Done:  E(RM062X) =  -1975.58771427     A.U. after   10 cycles
 SCF Done:  E(RM062X) =  -1975.58770162     A.U. after   10 cycles
 SCF Done:  E(RM062X) =  -1975.58792416     A.U. after   10 cycles
 SCF Done:  E(RM062X) =  -1975.58799236     A.U. after    9 cycles
 SCF Done:  E(RM062X) =  -1975.58803108     A.U. after    9 cycles
 SCF Done:  E(RM062X) =  -1975.58804327     A.U. after    9 cycles
 SCF Done:  E(RM062X) =  -1975.58804797     A.U. after    8 cycles
 SCF Done:  E(RM062X) =  -1975.58804989     A.U. after    8 cycles
 SCF Done:  E(RM062X) =  -1975.58805062     A.U. after    8 cycles
 SCF Done:  E(RM062X) =  -1975.58805105     A.U. after    7 cycles
 SCF Done:  E(RM062X) =  -1975.58805131     A.U. after    7 cycles
 SCF Done:  E(RM062X) =  -1975.58805136     A.U. after    6 cycles
 Optimization completed.
    -- Stationary point found.

                         Standard orientation:
 ---------------------------------------------------------------------
 Center     Atomic      Atomic             Coordinates (Angstroms)
 Number     Number       Type             X           Y           Z
 ---------------------------------------------------------------------
      1          6           0       -0.769016    2.555691    0.289192
      2          6           0       -1.561143    1.458424   -0.008808
      3          6           0       -2.891758    1.359765    0.505924
      4          6           0       -3.397372    2.399699    1.251447
      5          6           0       -0.969258    0.369858   -0.880336
      6          1           0       -4.410673    2.336086    1.641256
      7          6           0       -2.609291    3.524965    1.592765
      8          6           0       -1.262434    3.596352    1.141271
      9          6           0       -0.458102    4.682961    1.584472
     10          6           0       -0.979902    5.660203    2.393104
     11          6           0       -2.332669    5.606296    2.808652
     12          6           0       -3.124946    4.558281    2.421256
     13          1           0        0.582063    4.730441    1.280331
     14          1           0       -0.349759    6.479976    2.723432
     15          1           0       -2.732711    6.389644    3.444627
     16          1           0       -4.158609    4.491679    2.750101
     17          6           0        3.253239    2.515836   -1.230962
     18          6           0        0.632133    2.580600   -0.234524
     19          6           0        1.461371    1.503735    0.047849
     20          6           0        2.798380    1.473539   -0.458609
     21          1           0        4.275493    2.501468   -1.602242
     22          6           0        0.857423    0.313117    0.774461
     23          6           0        2.421518    3.610622   -1.568038
     24          6           0        1.085224    3.644013   -1.082901
     25          6           0        0.242529    4.709828   -1.505847
     26          6           0        0.719130    5.701415   -2.324991
     27          6           0        2.062711    5.685794   -2.771482
     28          6           0        2.891550    4.659112   -2.403903
     29          1           0       -0.791822    4.728887   -1.180455
     30          1           0        0.059059    6.503755   -2.639250
     31          1           0        2.426830    6.481049   -3.414170
     32          1           0        3.919930    4.622042   -2.753271
     33          1           0        1.607523   -0.363542    1.169875
     34          1           0        0.269025    0.671160    1.625919
     35          7           0       -0.025637   -0.447588   -0.116241
     36          1           0       -0.455464    0.833982   -1.733279
     37          1           0       -1.762005   -0.256554   -1.281358
     38          7           0       -0.569155   -2.546046   -1.133913
     39          6           0        0.221817   -1.764711   -0.490787
     40          7           0        1.437779   -2.285641   -0.039844
     41          1           0       -1.486151   -2.128426   -1.278431
     42          1           0        2.252245   -1.717856   -0.258184
     43          1           0        1.543003   -3.226434   -0.403163
     44          6           0       -5.365306   -2.118671   -0.121700
     45          6           0       -5.850942   -0.832434   -0.383389
     46          6           0       -5.050398    0.287647   -0.189392
     47          6           0       -3.737229    0.158651    0.273763
     48          6           0       -3.253439   -1.127177    0.548810
     49          6           0       -4.052522   -2.245820    0.350430
     50          1           0       -6.856106   -0.710074   -0.776844
     51          1           0       -5.436793    1.275526   -0.425201
     52          1           0       -2.243044   -1.247858    0.933297
     53          1           0       -3.657963   -3.229687    0.588015
     54          6           0        5.401198   -1.893407    0.260157
     55          6           0        5.078810   -1.491414   -1.040838
     56          6           0        4.247703   -0.397935   -1.265503
     57          6           0        3.707887    0.324919   -0.195352
     58          6           0        4.047777   -0.063924    1.106681
     59          6           0        4.876929   -1.155421    1.329800
     60          1           0        5.454871   -2.060837   -1.885949
     61          1           0        3.984351   -0.116369   -2.281333
     62          1           0        3.664185    0.503939    1.950377
     63          1           0        5.141874   -1.427644    2.347277
     64          6           0       -7.817347   -5.580668   -0.763289
     65          6           0       -6.455705   -5.621730   -1.054921
     66          6           0       -5.661122   -4.498939   -0.846653
     67          6           0       -6.213868   -3.315336   -0.342388
     68          6           0       -7.583321   -3.286244   -0.052341
     69          6           0       -8.378420   -4.408578   -0.261227
     70          1           0       -8.437374   -6.456683   -0.926097
     71          1           0       -6.011032   -6.528266   -1.453819
     72          1           0       -4.604971   -4.530184   -1.099561
     73          1           0       -8.021872   -2.383446    0.363610
     74          1           0       -9.437028   -4.369936   -0.023107
     75          6           0        7.914242   -5.298192    0.960499
     76          6           0        8.184969   -4.434660   -0.098657
     77          6           0        7.370667   -3.329772   -0.325738
     78          6           0        6.272057   -3.069832    0.502135
     79          6           0        6.009304   -3.944509    1.563210
     80          6           0        6.823475   -5.049414    1.790608
     81          1           0        8.549412   -6.160399    1.137637
     82          1           0        9.037423   -4.616921   -0.745757
     83          1           0        7.601232   -2.646351   -1.138256
     84          1           0        5.144669   -3.770310    2.197614
     85          1           0        6.600096   -5.722132    2.612863
 ---------------------------------------------------------------------

 The electronic state is 1-A.
 Alpha  occ. eigenvalues --  -14.77793 -14.75038 -14.70035 -10.63782 -10.58179
 Alpha  occ. eigenvalues --  -10.58021 -10.57071 -10.57047 -10.57008 -10.56989
 Alpha  occ. eigenvalues --  -10.56918 -10.56876 -10.56803 -10.56768 -10.56744
 Alpha  occ. eigenvalues --  -10.56632 -10.56507 -10.56445 -10.56404 -10.56295
 Alpha  occ. eigenvalues --  -10.56220 -10.56212 -10.56192 -10.56093 -10.56068
 Alpha  occ. eigenvalues --  -10.55952 -10.55915 -10.55685 -10.55673 -10.55585
 Alpha  occ. eigenvalues --  -10.55580 -10.55521 -10.55505 -10.55464 -10.55453
 Alpha  occ. eigenvalues --  -10.55441 -10.55427 -10.55401 -10.55381 -10.55356
 Alpha  occ. eigenvalues --  -10.55343 -10.55306 -10.55275 -10.55226 -10.55147
 Alpha  occ. eigenvalues --  -10.55045 -10.54985 -10.54961 -10.54902 -10.54864
 Alpha  occ. eigenvalues --   -1.08749  -1.01214  -0.99035  -0.98653  -0.97993
 Alpha  occ. eigenvalues --   -0.97416  -0.95972  -0.95454  -0.93899  -0.93166
 Alpha  occ. eigenvalues --   -0.92890  -0.90775  -0.88289  -0.87681  -0.86900
 Alpha  occ. eigenvalues --   -0.85417  -0.85289  -0.85120  -0.84584  -0.84214
 Alpha  occ. eigenvalues --   -0.83850  -0.83697  -0.83221  -0.80557  -0.79946
 Alpha  occ. eigenvalues --   -0.78052  -0.76990  -0.73146  -0.72416  -0.71164
 Alpha  occ. eigenvalues --   -0.70667  -0.70013  -0.69307  -0.68957  -0.68501
 Alpha  occ. eigenvalues --   -0.68124  -0.67754  -0.67220  -0.66022  -0.65562
 Alpha  occ. eigenvalues --   -0.64547  -0.63473  -0.62108  -0.61354  -0.60621
 Alpha  occ. eigenvalues --   -0.59760  -0.58968  -0.58802  -0.58034  -0.57265
 Alpha  occ. eigenvalues --   -0.56110  -0.55909  -0.55353  -0.54782  -0.54001
 Alpha  occ. eigenvalues --   -0.53689  -0.53151  -0.52964  -0.52603  -0.51892
 Alpha  occ. eigenvalues --   -0.51561  -0.51365  -0.51114  -0.50810  -0.50684
 Alpha  occ. eigenvalues --   -0.50543  -0.50075  -0.49754  -0.49618  -0.48954
 Alpha  occ. eigenvalues --   -0.48743  -0.48640  -0.48580  -0.48311  -0.47972
 Alpha  occ. eigenvalues --   -0.47559  -0.46818  -0.46350  -0.46314  -0.45967
 Alpha  occ. eigenvalues --   -0.45002  -0.44924  -0.44450  -0.44267  -0.44013
 Alpha  occ. eigenvalues --   -0.43321  -0.43170  -0.42841  -0.42548  -0.42036
 Alpha  occ. eigenvalues --   -0.41514  -0.40898  -0.40481  -0.40326  -0.40042
 Alpha  occ. eigenvalues --   -0.39798  -0.39538  -0.39148  -0.39019  -0.38639
 Alpha  occ. eigenvalues --   -0.38209  -0.37474  -0.35204  -0.34108  -0.33592
 Alpha  occ. eigenvalues --   -0.33093  -0.32692  -0.31706  -0.30968  -0.30721
 Alpha  occ. eigenvalues --   -0.30371  -0.30298  -0.29903  -0.29615  -0.27777
 Alpha  occ. eigenvalues --   -0.27476  -0.26698  -0.26524  -0.25530
 Alpha virt. eigenvalues --   -0.02695  -0.01771  -0.00585  -0.00322   0.01655
 Alpha virt. eigenvalues --    0.02002   0.02462   0.02840   0.03091   0.03566
 Alpha virt. eigenvalues --    0.05722   0.06067   0.06591   0.07779   0.10468

 Mulliken charges:
               1
     1  C   -0.059951
     2  C    0.038419
     3  C    0.022184
     4  C   -0.243520
     5  C   -0.222284
     6  H    0.176034
     7  C    0.076367
     8  C    0.063005
     9  C   -0.194659
    10  C   -0.177969
    11  C   -0.176735
    12  C   -0.203381
    13  H    0.182433
    14  H    0.175357
    15  H    0.175519
    16  H    0.175183
    17  C   -0.236859
    18  C   -0.076379
    19  C    0.063118
    20  C    0.016151
    21  H    0.176498
    22  C   -0.245903
    23  C    0.074554
    24  C    0.068884
    25  C   -0.194523
    26  C   -0.176831
    27  C   -0.176816
    28  C   -0.202397
    29  H    0.183818
    30  H    0.176109
    31  H    0.176123
    32  H    0.175397
    33  H    0.206355
    34  H    0.191506
    35  N   -0.477739
    36  H    0.187016
    37  H    0.188921
    38  N   -0.709555
    39  C    0.595341
    40  N   -0.806830
    41  H    0.297104
    42  H    0.353186
    43  H    0.358576
    44  C    0.056076
    45  C   -0.203236
    46  C   -0.193843
    47  C    0.025743
    48  C   -0.215017
    49  C   -0.200851
    50  H    0.174002
    51  H    0.173918
    52  H    0.195708
    53  H    0.184456
    54  C    0.052642
    55  C   -0.200250
    56  C   -0.202922
    57  C   -0.011922
    58  C   -0.192645
    59  C   -0.192730
    60  H    0.181357
    61  H    0.183841
    62  H    0.184723
    63  H    0.181539
    64  C   -0.167511
    65  C   -0.175489
    66  C   -0.196290
    67  C    0.051427
    68  C   -0.194954
    69  C   -0.175410
    70  H    0.171733
    71  H    0.174625
    72  H    0.179122
    73  H    0.169610
    74  H    0.172150
    75  C   -0.166445
    76  C   -0.174791
    77  C   -0.193873
    78  C    0.051547
    79  C   -0.194957
    80  C   -0.174705
    81  H    0.174245
    82  H    0.174810
    83  H    0.171845
    84  H    0.176018
    85  H    0.175875
 Sum of Mulliken charges =  -0.00000

 Dipole moment (field-independent basis, Debye):
    X=              1.9451    Y=              3.0572    Z=              0.3394  Tot=              3.6394
 Quadrupole moment (field-independent basis, Debye-Ang):
   XX=           -246.0063   YY=           -262.0849   ZZ=           -281.7399
   XY=            -11.1767   XZ=             -8.0634   YZ=             -3.7053

 1\1\GINC-NODE-002\FOpt\RM062X\6-31G(d)\C47H35N3\JP2658\09-Dec-2023\0\\
 # m062x 6-31g(d) scrf=(iefpcm,solvent=benzene) opt=(maxcycles=50,maxst
 ep=10)\\Structure1\\0,1\C,0.6582856524,7.0328011736,-2.2505825467\C,0.
 0339102999,5.8652885143,-1.8415177992\C,-1.3003317735,5.8947761725,-1.
 3275634983\C,-1.9791095444,7.0912437996,-1.3022898595\C,0.8117228545,4
 .5694003455,-1.9442017984\H,-2.9965403327,7.1217576819,-0.9193006897\C
 ,-1.3648922558,8.3056207047,-1.6919303778\C,-0.0147147819,8.2925960055
 ,-2.1389397136\C,0.6146772522,9.5363781486,-2.4234899695\C,-0.07565970

 Normal termination of Gaussian 16 at Sat Dec  9 23:54:45 2023.
