 Gaussian 16, Revision C.01,
 Gaussian 16:  ES64L-G16RevC.01  3-Jul-2019

 ----------------------------------------------------------------------
 # m062x 6-31g(d) scrf=(iefpcm,solvent=benzene) opt=(maxcycles=50,maxst
 ep=10)
 ----------------------------------------------------------------------

 ----------
 Structure2
 ----------
 Symbolic Z-matrix:
 Charge =  0 Multiplicity = 1

 SCF Done:  E(RM062X) =  -1875.76738203     A.U. after   13 cycles
 SCF Done:  E(RM062X) =  -1875.77434690     A.U. after   12 cycles
 SCF Done:  E(RM062X) =  -1875.77919744     A.U. after   12 cycles
 SCF Done:  E(RM062X) =  -1875.77885982     A.U. after   12 cycles
 SCF Done:  E(RM062X) =  -1875.78131916     A.U. after   12 cycles
 SCF Done:  E(RM062X) =  -1875.78172617     A.U. after   11 cycles
 SCF Done:  E(RM062X) =  -1875.78184298     A.U. after   11 cycles
 SCF Done:  E(RM062X) =  -1875.78199661     A.U. after   10 cycles
 SCF Done:  E(RM062X) =  -1875.78208281     A.U. after   10 cycles
 SCF Done:  E(RM062X) =  -1875.78211293     A.U. after   10 cycles
 SCF Done:  E(RM062X) =  -1875.78237692     A.U. after   10 cycles
 SCF Done:  E(RM062X) =  -1875.78238910     A.U. after    9 cycles
 SCF Done:  E(RM062X) =  -1875.78239148     A.U. after    8 cycles
 SCF Done:  E(RM062X) =  -1875.78239257     A.U. after    8 cycles
 SCF Done:  E(RM062X) =  -1875.78239372     A.U. after    8 cycles
 SCF Done:  E(RM062X) =  -1875.78239424     A.U. after    8 cycles
 SCF Done:  E(RM062X) =  -1875.78239424     A.U. after    7 cycles
 SCF Done:  E(RM062X) =  -1875.78239425     A.U. after    7 cycles
 SCF Done:  E(RM062X) =  -1875.78239436     A.U. after    7 cycles
 SCF Done:  E(RM062X) =  -1875.78239437     A.U. after    6 cycles
 Optimization completed.
    -- Stationary point found.

                         Standard orientation:
 ---------------------------------------------------------------------
 Center     Atomic      Atomic             Coordinates (Angstroms)
 Number     Number       Type             X           Y           Z
 ---------------------------------------------------------------------
      1          6           0       -2.966868    0.998909   -0.019188
      2          6           0       -3.132958    0.188928   -1.348190
      3          6           0       -2.975051   -1.285515   -0.944775
      4          7           0       -1.577141    1.384405    0.188945
      5          1           0       -3.561088    1.914747   -0.021324
      6          1           0       -4.159409    0.358630   -1.701425
      7          8           0       -2.195932    0.511928   -2.345912
      8          1           0       -1.923294   -1.584070   -1.046941
      9          1           0       -3.564935   -1.954750   -1.576425
     10          6           0       -3.394795    0.000982    1.028972
     11          6           0       -3.399481   -1.293318    0.503260
     12          6           0       -3.752464   -2.370409    1.310019
     13          6           0       -4.090866   -2.133914    2.641781
     14          6           0       -4.077478   -0.838836    3.164537
     15          6           0       -3.726697    0.241922    2.357704
     16          1           0       -3.765406   -3.380239    0.909946
     17          1           0       -4.371131   -2.966205    3.280157
     18          1           0       -4.347395   -0.673866    4.202786
     19          1           0       -3.717555    1.253211    2.754881
     20          1           0       -2.286592    1.459184   -2.551292
     21          1           0       -0.986241    0.705873    0.658080
     22          6           0       -0.988467    2.418773   -0.430648
     23         16           0       -1.827286    3.662610   -1.205653
     24          7           0        0.378930    2.443830   -0.373925
     25          1           0        0.791827    3.305102   -0.711765
     26          6           0        2.940943   -0.892686   -0.138020
     27          6           0        1.748514   -0.968225   -0.847063
     28          6           0        0.891345    0.123172   -0.942265
     29          6           0        1.219505    1.308602   -0.279075
     30          6           0        2.412597    1.400211    0.438696
     31          6           0        3.266164    0.305066    0.491581
     32          1           0        3.610814   -1.743476   -0.087817
     33          6           0        1.343586   -2.245608   -1.530456
     34          1           0       -0.016709    0.070443   -1.543433
     35          1           0        2.668490    2.324361    0.946967
     36          6           0        4.529729    0.390272    1.303673
     37          9           0        0.325522   -2.837081   -0.879854
     38          9           0        0.924028   -2.021585   -2.781012
     39          9           0        2.347230   -3.127895   -1.583930
     40          9           0        4.329329   -0.025657    2.562882
     41          9           0        5.498607   -0.375334    0.785827
     42          9           0        4.990460    1.646026    1.371303
 ---------------------------------------------------------------------

 The electronic state is 1-A.
 Alpha  occ. eigenvalues --  -89.87408 -25.29813 -25.29668 -25.29577 -25.29295
 Alpha  occ. eigenvalues --  -25.29282 -25.29048 -19.64744 -14.81874 -14.81442
 Alpha  occ. eigenvalues --  -10.81319 -10.81292 -10.68528 -10.63379 -10.60873
 Alpha  occ. eigenvalues --  -10.60220 -10.60176 -10.59944 -10.59469 -10.59427
 Alpha  occ. eigenvalues --  -10.59116 -10.56457 -10.56239 -10.56109 -10.55956
 Alpha  occ. eigenvalues --  -10.55776 -10.55757 -10.55370  -8.22126  -6.14256
 Alpha  occ. eigenvalues --   -6.13806  -6.13599  -1.46693  -1.46681  -1.37515
 Alpha  occ. eigenvalues --   -1.37504  -1.37022  -1.36988  -1.15636  -1.12632
 Alpha  occ. eigenvalues --   -1.05232  -1.00561  -0.98058  -0.92388  -0.91636
 Alpha  occ. eigenvalues --   -0.89702  -0.86271  -0.82801  -0.81886  -0.81627
 Alpha  occ. eigenvalues --   -0.81097  -0.79887  -0.74592  -0.74087  -0.71228
 Alpha  occ. eigenvalues --   -0.70238  -0.69639  -0.69276  -0.69039  -0.68982
 Alpha  occ. eigenvalues --   -0.68323  -0.67177  -0.66213  -0.64013  -0.62489
 Alpha  occ. eigenvalues --   -0.60772  -0.60312  -0.59167  -0.58403  -0.57846
 Alpha  occ. eigenvalues --   -0.56968  -0.56925  -0.56837  -0.56556  -0.55714
 Alpha  occ. eigenvalues --   -0.53379  -0.53070  -0.52844  -0.52723  -0.52321
 Alpha  occ. eigenvalues --   -0.52036  -0.51626  -0.50871  -0.50838  -0.49886
 Alpha  occ. eigenvalues --   -0.49543  -0.49062  -0.48301  -0.48175  -0.47643
 Alpha  occ. eigenvalues --   -0.46492  -0.45676  -0.45424  -0.43951  -0.43284
 Alpha  occ. eigenvalues --   -0.42705  -0.41720  -0.39935  -0.39454  -0.37537
 Alpha  occ. eigenvalues --   -0.35419  -0.34915  -0.31353  -0.30919  -0.30206
 Alpha  occ. eigenvalues --   -0.28177  -0.27536
 Alpha virt. eigenvalues --   -0.02318  -0.01852   0.01689   0.02375   0.03350
 Alpha virt. eigenvalues --    0.10458   0.12173   0.13341   0.13645   0.14444
 Alpha virt. eigenvalues --    0.15488   0.15960   0.16141   0.17157   0.17989

 Mulliken charges:
               1
     1  C   -0.103752
     2  C    0.126798
     3  C   -0.382476
     4  N   -0.582381
     5  H    0.222949
     6  H    0.171982
     7  O   -0.666217
     8  H    0.182099
     9  H    0.193734
    10  C    0.028097
    11  C    0.083335
    12  C   -0.211169
    13  C   -0.168443
    14  C   -0.179631
    15  C   -0.188042
    16  H    0.176931
    17  H    0.176974
    18  H    0.177019
    19  H    0.183602
    20  H    0.438200
    21  H    0.376857
    22  C    0.359278
    23  S   -0.348145
    24  N   -0.702332
    25  H    0.399504
    26  C   -0.179801
    27  C   -0.096194
    28  C   -0.182181
    29  C    0.215892
    30  C   -0.173191
    31  C   -0.091104
    32  H    0.224251
    33  C    0.845038
    34  H    0.249427
    35  H    0.217390
    36  C    0.838262
    37  F   -0.270867
    38  F   -0.269689
    39  F   -0.274361
    40  F   -0.266927
    41  F   -0.274788
    42  F   -0.275929
 Sum of Mulliken charges =  -0.00000

 Dipole moment (field-independent basis, Debye):
    X=             -0.2106    Y=             -2.0494    Z=              2.4578  Tot=              3.2071
 Quadrupole moment (field-independent basis, Debye-Ang):
   XX=           -164.1103   YY=           -173.4357   ZZ=           -165.8626
   XY=             13.7042   XZ=             -9.0365   YZ=              1.3449

 Normal termination of Gaussian 16 at Sat Dec  9 23:32:45 2023.
