 Gaussian 16, Revision C.01,
 Gaussian 16:  ES64L-G16RevC.01  3-Jul-2019

 ----------------------------------------------------------------------
 # m062x 6-31g(d) scrf=(iefpcm,solvent=benzene) opt=(maxcycles=50,maxst
 ep=10)
 ----------------------------------------------------------------------

 ----------
 Structure1
 ----------
 Symbolic Z-matrix:
 Charge =  0 Multiplicity = 1

 SCF Done:  E(RM062X) =  -1301.54838484     A.U. after   14 cycles
 SCF Done:  E(RM062X) =  -1301.55606046     A.U. after   12 cycles
 SCF Done:  E(RM062X) =  -1301.56019565     A.U. after   12 cycles
 SCF Done:  E(RM062X) =  -1301.55203569     A.U. after   14 cycles
 SCF Done:  E(RM062X) =  -1301.55623111     A.U. after   13 cycles
 SCF Done:  E(RM062X) =  -1301.56147410     A.U. after   10 cycles
 SCF Done:  E(RM062X) =  -1301.56107571     A.U. after   12 cycles
 SCF Done:  E(RM062X) =  -1301.56207261     A.U. after   11 cycles
 SCF Done:  E(RM062X) =  -1301.56226573     A.U. after   11 cycles
 SCF Done:  E(RM062X) =  -1301.56234473     A.U. after   11 cycles
 SCF Done:  E(RM062X) =  -1301.56243634     A.U. after   10 cycles
 SCF Done:  E(RM062X) =  -1301.56250025     A.U. after   10 cycles
 SCF Done:  E(RM062X) =  -1301.56254198     A.U. after   10 cycles
 SCF Done:  E(RM062X) =  -1301.56255020     A.U. after    9 cycles
 SCF Done:  E(RM062X) =  -1301.56255301     A.U. after    8 cycles
 SCF Done:  E(RM062X) =  -1301.56255453     A.U. after    9 cycles
 SCF Done:  E(RM062X) =  -1301.56255507     A.U. after    7 cycles
 SCF Done:  E(RM062X) =  -1301.56255546     A.U. after    7 cycles
 SCF Done:  E(RM062X) =  -1301.56255548     A.U. after    6 cycles
 Optimization completed.
    -- Stationary point found.

                         Standard orientation:
 ---------------------------------------------------------------------
 Center     Atomic      Atomic             Coordinates (Angstroms)
 Number     Number       Type             X           Y           Z
 ---------------------------------------------------------------------
      1          6           0        2.238143    0.136523   -0.408151
      2          6           0        4.678216   -1.274875   -0.498292
      3          6           0        4.621611    0.020793   -0.928081
      4          6           0        3.392389    0.727233   -0.889610
      5          1           0        5.616397   -1.821921   -0.537819
      6          1           0        5.494178    0.536031   -1.315141
      7          8           0        3.428552    2.001085   -1.352348
      8          6           0        2.293188   -1.218436    0.063819
      9          6           0        3.522490   -1.934503    0.002257
     10          6           0        3.566047   -3.282989    0.440226
     11          6           0        2.439921   -3.906206    0.916489
     12          6           0        1.219500   -3.194521    0.988783
     13          6           0        1.148486   -1.885847    0.580925
     14          1           0        4.513106   -3.814036    0.386633
     15          1           0        2.483392   -4.940609    1.242257
     16          1           0        0.320439   -3.672834    1.364628
     17          1           0        0.207252   -1.351668    0.668164
     18          6           0       -1.567191    2.135237   -0.388289
     19          6           0        0.950900    0.886831   -0.409150
     20          6           0       -0.077214    0.451867   -1.229300
     21          6           0       -1.365919    1.052899   -1.203943
     22          1           0       -2.555774    2.587478   -0.351178
     23          8           0        0.069656   -0.603721   -2.071649
     24          6           0       -2.505137    0.490467   -2.028467
     25          6           0       -0.537706    2.658994    0.432998
     26          6           0        0.733051    2.016292    0.442466
     27          6           0        1.741726    2.524038    1.307780
     28          6           0        1.500609    3.620042    2.098086
     29          6           0        0.241971    4.266667    2.075226
     30          6           0       -0.754332    3.789226    1.263292
     31          1           0        2.705504    2.025513    1.345508
     32          1           0        2.282509    3.992480    2.752648
     33          1           0        0.068235    5.132420    2.706074
     34          1           0       -1.730429    4.266878    1.242814
     35          1           0        2.539270    2.387907   -1.285193
     36          1           0        0.957361   -0.983109   -1.953219
     37          7           0       -3.688057    0.247096   -1.204983
     38          1           0       -2.800936    1.229805   -2.780924
     39          1           0       -2.182532   -0.405547   -2.576763
     40          6           0       -4.897476    0.114357   -2.012666
     41          6           0       -3.225244   -2.506388    1.878515
     42          6           0       -4.368063   -1.708142    1.858422
     43          6           0       -4.527115   -0.795151    0.828745
     44          6           0       -3.551587   -0.707060   -0.172918
     45          6           0       -2.450890   -1.570384   -0.061693
     46          7           0       -2.282249   -2.439071    0.940701
     47          1           0       -3.063784   -3.224756    2.678341
     48          1           0       -5.386709   -0.131590    0.805693
     49          1           0       -1.662556   -1.566564   -0.809987
     50          1           0       -5.042248    1.028775   -2.594312
     51          1           0       -5.768810   -0.022471   -1.371400
     52          1           0       -4.841165   -0.738787   -2.706803
     53          1           0       -5.108451   -1.790261    2.647102
 ---------------------------------------------------------------------

 The electronic state is 1-A.
 Alpha  occ. eigenvalues --  -19.67566 -19.67089 -14.77398 -14.75719 -10.62153
 Alpha  occ. eigenvalues --  -10.61939 -10.59085 -10.58242 -10.57482 -10.57427
 Alpha  occ. eigenvalues --  -10.57422 -10.56794 -10.56565 -10.56344 -10.56298
 Alpha  occ. eigenvalues --  -10.56196 -10.56114 -10.56002 -10.55992 -10.55795
 Alpha  occ. eigenvalues --  -10.55761 -10.55586 -10.55406 -10.55391 -10.55310
 Alpha  occ. eigenvalues --  -10.55131 -10.55079 -10.55036 -10.54697 -10.54579
 Alpha  occ. eigenvalues --  -10.54393  -1.19146  -1.18638  -1.06429  -1.03631
 Alpha  occ. eigenvalues --   -0.98828  -0.97700  -0.92896  -0.92105  -0.90165
 Alpha  occ. eigenvalues --   -0.89295  -0.85909  -0.85440  -0.85035  -0.83364
 Alpha  occ. eigenvalues --   -0.82236  -0.80747  -0.78964  -0.75629  -0.73750
 Alpha  occ. eigenvalues --   -0.71570  -0.70978  -0.69596  -0.69159  -0.68777
 Alpha  occ. eigenvalues --   -0.66925  -0.65945  -0.62832  -0.62222  -0.60735
 Alpha  occ. eigenvalues --   -0.59847  -0.59235  -0.58018  -0.56824  -0.56209
 Alpha  occ. eigenvalues --   -0.55367  -0.54039  -0.52817  -0.52379  -0.51846
 Alpha  occ. eigenvalues --   -0.51616  -0.51405  -0.50887  -0.50229  -0.49966
 Alpha  occ. eigenvalues --   -0.49556  -0.48519  -0.48031  -0.47349  -0.46874
 Alpha  occ. eigenvalues --   -0.46691  -0.46268  -0.45875  -0.45683  -0.45542
 Alpha  occ. eigenvalues --   -0.45207  -0.44966  -0.44409  -0.43715  -0.42538
 Alpha  occ. eigenvalues --   -0.41982  -0.40330  -0.39836  -0.39543  -0.37663
 Alpha  occ. eigenvalues --   -0.37412  -0.37164  -0.35820  -0.34907  -0.33144
 Alpha  occ. eigenvalues --   -0.32741  -0.31576  -0.28319  -0.28178  -0.26572
 Alpha  occ. eigenvalues --   -0.26153  -0.25029
 Alpha virt. eigenvalues --   -0.01750  -0.00330   0.01678   0.02359   0.02860
 Alpha virt. eigenvalues --    0.03535   0.05868   0.07321   0.12740   0.13328
 Alpha virt. eigenvalues --    0.14163   0.14530   0.14918   0.15076   0.15683

 Mulliken charges:
               1
     1  C   -0.105130
     2  C   -0.203109
     3  C   -0.189143
     4  C    0.294880
     5  H    0.179324
     6  H    0.185911
     7  O   -0.675296
     8  C    0.028541
     9  C    0.077028
    10  C   -0.206317
    11  C   -0.180075
    12  C   -0.172941
    13  C   -0.204331
    14  H    0.170782
    15  H    0.171021
    16  H    0.185707
    17  H    0.181585
    18  C   -0.244082
    19  C   -0.081151
    20  C    0.248131
    21  C    0.081160
    22  H    0.177924
    23  O   -0.680206
    24  C   -0.224654
    25  C    0.088138
    26  C    0.040839
    27  C   -0.211314
    28  C   -0.173863
    29  C   -0.181760
    30  C   -0.202821
    31  H    0.185227
    32  H    0.174965
    33  H    0.172714
    34  H    0.173161
    35  H    0.447745
    36  H    0.456000
    37  N   -0.520059
    38  H    0.187802
    39  H    0.188657
    40  C   -0.337697
    41  C    0.011913
    42  C   -0.187382
    43  C   -0.163713
    44  C    0.276753
    45  C   -0.019841
    46  N   -0.462747
    47  H    0.172784
    48  H    0.182429
    49  H    0.187086
    50  H    0.177482
    51  H    0.180195
    52  H    0.161375
    53  H    0.180371
 Sum of Mulliken charges =  -0.00000

 Dipole moment (field-independent basis, Debye):
    X=             -2.5952    Y=              1.0982    Z=             -0.2921  Tot=              2.8331
 Quadrupole moment (field-independent basis, Debye-Ang):
   XX=           -150.8626   YY=           -171.3408   ZZ=           -174.2162
   XY=             -9.8120   XZ=              1.7701   YZ=              0.9393

 Normal termination of Gaussian 16 at Sat Dec  9 23:35:17 2023.
