 Gaussian 16, Revision C.01,
 Gaussian 16:  ES64L-G16RevC.01  3-Jul-2019

 ----------------------------------------------------------------------
 # m062x chkbasis guess=read geom=allchk scrf=(iefpcm,solvent=benzene)
 opt=(maxcycles=50,maxstep=10)
 ----------------------------------------------------------------------

 Structure from the checkpoint file:  "segphos_OPLS3e_1_opt.chk"
 -------------
 Structure1514
 -------------
 Charge =  0 Multiplicity = 1

 SCF Done:  E(RM062X) =  -2447.69354310     A.U. after    1 cycles
 SCF Done:  E(RM062X) =  -2447.63313818     A.U. after   12 cycles
 SCF Done:  E(RM062X) =  -2447.69286114     A.U. after   11 cycles
 SCF Done:  E(RM062X) =  -2447.69399092     A.U. after    8 cycles
 SCF Done:  E(RM062X) =  -2447.69379526     A.U. after   11 cycles
 SCF Done:  E(RM062X) =  -2447.69429958     A.U. after   11 cycles
 SCF Done:  E(RM062X) =  -2447.69446132     A.U. after   11 cycles
 SCF Done:  E(RM062X) =  -2447.69458889     A.U. after   10 cycles
 SCF Done:  E(RM062X) =  -2447.69462163     A.U. after    9 cycles
 SCF Done:  E(RM062X) =  -2447.69462910     A.U. after    9 cycles
 SCF Done:  E(RM062X) =  -2447.69399977     A.U. after   12 cycles
 SCF Done:  E(RM062X) =  -2447.69460338     A.U. after   10 cycles
 SCF Done:  E(RM062X) =  -2447.69465537     A.U. after    4 cycles
 SCF Done:  E(RM062X) =  -2447.69466092     A.U. after    9 cycles
 SCF Done:  E(RM062X) =  -2447.69466037     A.U. after    9 cycles
 SCF Done:  E(RM062X) =  -2447.69466198     A.U. after    9 cycles
 SCF Done:  E(RM062X) =  -2447.69466228     A.U. after    7 cycles
 SCF Done:  E(RM062X) =  -2447.69466237     A.U. after    7 cycles
 SCF Done:  E(RM062X) =  -2447.69466240     A.U. after    7 cycles
 SCF Done:  E(RM062X) =  -2447.69466241     A.U. after    7 cycles
 Optimization completed.
    -- Stationary point found.

                         Standard orientation:
 ---------------------------------------------------------------------
 Center     Atomic      Atomic             Coordinates (Angstroms)
 Number     Number       Type             X           Y           Z
 ---------------------------------------------------------------------
      1          6           0       -1.763088   -0.965758   -0.710446
      2          6           0       -2.428349   -1.183209   -1.917856
      3          6           0       -1.855879   -1.911832   -2.971775
      4          6           0       -0.585330   -2.397509   -2.763360
      5          6           0        0.080813   -2.204508   -1.558948
      6          6           0       -0.463464   -1.497382   -0.507048
      7         15           0       -2.454791    0.118782    0.616936
      8          1           0       -3.418072   -0.760769   -2.059699
      9          1           0       -2.378974   -2.074214   -3.906909
     10          8           0        0.199593   -3.142214   -3.599991
     11          8           0        1.295020   -2.837430   -1.608473
     12          6           0        1.669821   -1.212976    3.271115
     13          6           0        0.453335   -1.846789    3.141139
     14          6           0       -0.202943   -1.923967    1.919807
     15          6           0        0.291723   -1.349258    0.764594
     16          6           0        1.532968   -0.674308    0.880010
     17          6           0        2.193769   -0.627993    2.110696
     18          1           0        2.188014   -1.168405    4.221856
     19          8           0       -0.272569   -2.514595    4.087347
     20          8           0       -1.348830   -2.658469    2.066480
     21         15           0        2.225125    0.184922   -0.602884
     22          1           0        3.145596   -0.107830    2.173896
     23          6           0        1.485594   -3.145068   -2.986704
     24          6           0       -1.538503   -2.752052    3.473973
     25          1           0        2.111111   -2.368962   -3.446308
     26          1           0        1.930178   -4.135129   -3.078664
     27          1           0       -2.247787   -1.979096    3.795928
     28          1           0       -1.882610   -3.753649    3.728365
     29          6           0       -1.175923    4.370736   -0.747041
     30          6           0       -0.795507    3.279016   -1.519496
     31          6           0       -1.175319    1.988783   -1.149778
     32          6           0       -1.925042    1.776823    0.010516
     33          6           0       -2.281248    2.882982    0.795632
     34          6           0       -1.925163    4.170892    0.412464
     35          1           0       -0.875749    5.373410   -1.036251
     36          1           0       -0.195860    3.425979   -2.412731
     37          1           0       -0.876946    1.146527   -1.768233
     38          1           0       -2.852683    2.731124    1.709300
     39          1           0       -2.218998    5.018030    1.025363
     40          6           0       -6.977140   -0.098309   -0.415412
     41          6           0       -6.245361    0.998677   -0.861944
     42          6           0       -4.883850    1.098827   -0.577983
     43          6           0       -4.242179    0.103693    0.165101
     44          6           0       -4.989655   -0.991356    0.617731
     45          6           0       -6.344915   -1.097563    0.323229
     46          1           0       -8.036714   -0.174353   -0.639483
     47          1           0       -6.732885    1.779098   -1.438637
     48          1           0       -4.318751    1.953770   -0.938633
     49          1           0       -4.498866   -1.767831    1.201478
     50          1           0       -6.909900   -1.955122    0.675849
     51          6           0        2.019643    4.703393    0.457481
     52          6           0        1.409915    3.786541    1.308828
     53          6           0        1.468649    2.421474    1.034786
     54          6           0        2.137234    1.955752   -0.101129
     55          6           0        2.718235    2.889992   -0.970104
     56          6           0        2.672762    4.251642   -0.687762
     57          1           0        1.975170    5.765998    0.677069
     58          1           0        0.877518    4.132145    2.189993
     59          1           0        0.983070    1.720033    1.706803
     60          1           0        3.222752    2.545461   -1.871081
     61          1           0        3.142584    4.959290   -1.364533
     62          6           0        6.702375   -0.962192   -0.069504
     63          6           0        6.308392    0.335034    0.242838
     64          6           0        4.974107    0.719059    0.106128
     65          6           0        4.019048   -0.191724   -0.353428
     66          6           0        4.426827   -1.495590   -0.668499
     67          6           0        5.754886   -1.880144   -0.521612
     68          1           0        7.741120   -1.258702    0.039098
     69          1           0        7.039045    1.054347    0.600891
     70          1           0        4.680067    1.732425    0.363004
     71          1           0        3.687499   -2.214395   -1.015525
     72          1           0        6.052919   -2.896043   -0.763324
 ---------------------------------------------------------------------

 The electronic state is 1-A.
 Alpha  occ. eigenvalues --  -78.05020 -78.04936 -19.68817 -19.68636 -19.68568
 Alpha  occ. eigenvalues --  -19.68534 -10.66616 -10.66463 -10.61492 -10.61485
 Alpha  occ. eigenvalues --  -10.61347 -10.61262 -10.57453 -10.57373 -10.56079
 Alpha  occ. eigenvalues --  -10.56052 -10.55971 -10.55946 -10.55640 -10.55611
 Alpha  occ. eigenvalues --  -10.55567 -10.55529 -10.55411 -10.55337 -10.55314
 Alpha  occ. eigenvalues --  -10.55218 -10.55156 -10.55124 -10.55080 -10.55074
 Alpha  occ. eigenvalues --  -10.55045 -10.55022 -10.54992 -10.54946 -10.54912
 Alpha  occ. eigenvalues --  -10.54912 -10.54886 -10.54840 -10.54806 -10.54764
 Alpha  occ. eigenvalues --  -10.54737 -10.54726 -10.54665 -10.54579  -6.85312
 Alpha  occ. eigenvalues --   -6.85255  -4.96823  -4.96808  -4.96762  -4.96753
 Alpha  occ. eigenvalues --   -4.96519  -4.96457  -1.25871  -1.25744  -1.16040
 Alpha  occ. eigenvalues --   -1.15899  -0.98401  -0.96359  -0.95876  -0.95608
 Alpha  occ. eigenvalues --   -0.95320  -0.95003  -0.88686  -0.87189  -0.86898
 Alpha  occ. eigenvalues --   -0.84833  -0.84714  -0.84048  -0.83862  -0.83634
 Alpha  occ. eigenvalues --   -0.83567  -0.83279  -0.83139  -0.82685  -0.77100
 Alpha  occ. eigenvalues --   -0.76921  -0.73604  -0.73164  -0.72293  -0.69921
 Alpha  occ. eigenvalues --   -0.69352  -0.68696  -0.68555  -0.68338  -0.67962
 Alpha  occ. eigenvalues --   -0.67938  -0.67235  -0.67165  -0.63663  -0.63571
 Alpha  occ. eigenvalues --   -0.61458  -0.61003  -0.60159  -0.59981  -0.59401
 Alpha  occ. eigenvalues --   -0.58673  -0.58655  -0.57795  -0.57273  -0.56762
 Alpha  occ. eigenvalues --   -0.54613  -0.54576  -0.52138  -0.51989  -0.51592
 Alpha  occ. eigenvalues --   -0.51386  -0.51328  -0.51173  -0.50987  -0.50907
 Alpha  occ. eigenvalues --   -0.50828  -0.50187  -0.49850  -0.48701  -0.48533
 Alpha  occ. eigenvalues --   -0.48435  -0.48226  -0.48109  -0.47871  -0.47301
 Alpha  occ. eigenvalues --   -0.47144  -0.46872  -0.46687  -0.46111  -0.45625
 Alpha  occ. eigenvalues --   -0.44604  -0.44185  -0.43990  -0.43970  -0.43587
 Alpha  occ. eigenvalues --   -0.43402  -0.43233  -0.43123  -0.41510  -0.40463
 Alpha  occ. eigenvalues --   -0.39999  -0.39929  -0.39788  -0.39640  -0.38763
 Alpha  occ. eigenvalues --   -0.38624  -0.37823  -0.37682  -0.36782  -0.36598
 Alpha  occ. eigenvalues --   -0.33336  -0.32504  -0.31828  -0.30855  -0.30618
 Alpha  occ. eigenvalues --   -0.30374  -0.30293  -0.29803  -0.29417  -0.28874
 Alpha  occ. eigenvalues --   -0.27513  -0.26277  -0.25352  -0.25004
 Alpha virt. eigenvalues --    0.00173   0.01334   0.01671   0.02023   0.02398
 Alpha virt. eigenvalues --    0.02638   0.03154   0.03550   0.03755   0.04343
 Alpha virt. eigenvalues --    0.04473   0.04828   0.09657   0.10126   0.10310

 Mulliken charges:
               1
     1  C   -0.160034
     2  C   -0.201948
     3  C   -0.188399
     4  C    0.320261
     5  C    0.325028
     6  C   -0.023267
     7  P    0.354551
     8  H    0.183883
     9  H    0.192884
    10  O   -0.559889
    11  O   -0.553487
    12  C   -0.186298
    13  C    0.325803
    14  C    0.322025
    15  C   -0.036947
    16  C   -0.162795
    17  C   -0.194239
    18  H    0.193510
    19  O   -0.559759
    20  O   -0.550329
    21  P    0.360279
    22  H    0.182174
    23  C    0.175772
    24  C    0.175933
    25  H    0.184181
    26  H    0.200537
    27  H    0.183280
    28  H    0.199231
    29  C   -0.158524
    30  C   -0.147678
    31  C   -0.170483
    32  C   -0.126847
    33  C   -0.200868
    34  C   -0.158468
    35  H    0.166022
    36  H    0.168173
    37  H    0.178605
    38  H    0.174681
    39  H    0.168293
    40  C   -0.173816
    41  C   -0.160530
    42  C   -0.185513
    43  C   -0.135314
    44  C   -0.188075
    45  C   -0.158774
    46  H    0.173069
    47  H    0.173346
    48  H    0.180818
    49  H    0.173513
    50  H    0.173201
    51  C   -0.173678
    52  C   -0.144844
    53  C   -0.173966
    54  C   -0.115310
    55  C   -0.209856
    56  C   -0.158720
    57  H    0.167219
    58  H    0.167257
    59  H    0.175596
    60  H    0.175239
    61  H    0.169407
    62  C   -0.175078
    63  C   -0.159989
    64  C   -0.194440
    65  C   -0.132678
    66  C   -0.194287
    67  C   -0.159887
    68  H    0.171316
    69  H    0.171282
    70  H    0.178401
    71  H    0.179605
    72  H    0.170639
 Sum of Mulliken charges =  -0.00000

 Dipole moment (field-independent basis, Debye):
    X=             -0.0717    Y=              1.0903    Z=             -0.0781  Tot=              1.0954
 Quadrupole moment (field-independent basis, Debye-Ang):
   XX=           -238.6824   YY=           -242.9562   ZZ=           -255.6415
   XY=              1.1709   XZ=             -4.6028   YZ=             -0.0622

 Normal termination of Gaussian 16 at Tue Dec 12 03:45:33 2023.
