 Gaussian 16, Revision C.01,
 Gaussian 16:  ES64L-G16RevC.01  3-Jul-2019

 ----------------------------------------------------------------------
 # m062x 6-31g(d) scrf=(iefpcm,solvent=benzene) opt=(maxcycles=50,maxst
 ep=10)
 ----------------------------------------------------------------------

 ------------
 Structure901
 ------------
 Symbolic Z-matrix:
 Charge =  0 Multiplicity = 1

 SCF Done:  E(RM062X) =  -1901.67556405     A.U. after   14 cycles
 SCF Done:  E(RM062X) =  -1901.68186030     A.U. after   11 cycles
 SCF Done:  E(RM062X) =  -1901.68520813     A.U. after   13 cycles
 SCF Done:  E(RM062X) =  -1901.68736701     A.U. after   11 cycles
 SCF Done:  E(RM062X) =  -1901.68767460     A.U. after   11 cycles
 SCF Done:  E(RM062X) =  -1901.68769005     A.U. after   10 cycles
 SCF Done:  E(RM062X) =  -1901.68785497     A.U. after   10 cycles
 SCF Done:  E(RM062X) =  -1901.68783536     A.U. after   10 cycles
 SCF Done:  E(RM062X) =  -1901.68785477     A.U. after    9 cycles
 SCF Done:  E(RM062X) =  -1901.68787413     A.U. after    9 cycles
 SCF Done:  E(RM062X) =  -1901.68786800     A.U. after    9 cycles
 SCF Done:  E(RM062X) =  -1901.68786954     A.U. after    7 cycles
 SCF Done:  E(RM062X) =  -1901.68787412     A.U. after    9 cycles
 SCF Done:  E(RM062X) =  -1901.68786897     A.U. after    9 cycles
 SCF Done:  E(RM062X) =  -1901.68786927     A.U. after    7 cycles
 SCF Done:  E(RM062X) =  -1901.68787401     A.U. after    9 cycles
 SCF Done:  E(RM062X) =  -1901.68786928     A.U. after    9 cycles
 SCF Done:  E(RM062X) =  -1901.68786827     A.U. after    7 cycles
 SCF Done:  E(RM062X) =  -1901.68787367     A.U. after    9 cycles
 SCF Done:  E(RM062X) =  -1901.68786920     A.U. after    9 cycles
 Optimization completed on the basis of negligible forces.
    -- Stationary point found.

                         Standard orientation:
 ---------------------------------------------------------------------
 Center     Atomic      Atomic             Coordinates (Angstroms)
 Number     Number       Type             X           Y           Z
 ---------------------------------------------------------------------
      1          6           0        1.995239   -2.094996    0.752761
      2          6           0        2.327455   -0.843296    1.270602
      3          6           0        1.775974   -0.405128    2.475754
      4          6           0        0.882206   -1.220087    3.162086
      5          6           0        0.525166   -2.460429    2.638593
      6          6           0        1.084589   -2.893955    1.438738
      7          1           0        2.435273   -2.415567   -0.184936
      8          7           0        3.200907    0.010523    0.523840
      9          1           0        2.031031    0.579601    2.858744
     10          1           0        0.444404   -0.873643    4.092236
     11          1           0       -0.189343   -3.085172    3.164120
     12          1           0        0.818888   -3.865891    1.035239
     13          1           0        3.669388    0.727046    1.076340
     14         16           0        2.594138    0.701170   -0.878474
     15          8           0        2.177663   -0.384501   -1.746602
     16          8           0        3.589872    1.677098   -1.289861
     17          6           0       -1.142382    2.980678    0.388639
     18          6           0       -1.124915    1.588031    0.390521
     19          6           0        0.000005    0.865538   -0.000006
     20          6           0        1.124933    1.588022   -0.390529
     21          6           0        1.142411    2.980669   -0.388649
     22          6           0        0.000017    3.675764   -0.000006
     23          1           0       -2.041790    3.501752    0.699713
     24          1           0       -0.000001   -0.221526   -0.000007
     25          1           0        2.041825    3.501735   -0.699718
     26          1           0        0.000022    4.760207   -0.000005
     27         16           0       -2.594121    0.701189    0.878480
     28          8           0       -3.589847    1.677121    1.289879
     29          7           0       -3.200911    0.010542   -0.523825
     30          8           0       -2.177643   -0.384486    1.746602
     31          1           0       -3.669402    0.727064   -1.076317
     32          6           0       -0.525201   -2.460420   -2.638606
     33          6           0       -1.084599   -2.893936   -1.438737
     34          6           0       -1.995240   -2.094975   -0.752750
     35          6           0       -2.327471   -0.843281   -1.270597
     36          6           0       -1.776014   -0.405122   -2.475763
     37          6           0       -0.882256   -1.220083   -3.162104
     38          1           0        0.189300   -3.085164   -3.164142
     39          1           0       -0.818885   -3.865867   -1.035233
     40          1           0       -2.435257   -2.415539    0.184957
     41          1           0       -2.031085    0.579601   -2.858759
     42          1           0       -0.444475   -0.873647   -4.092267
 ---------------------------------------------------------------------

 The electronic state is 1-A.
 Alpha  occ. eigenvalues --  -90.17149 -90.17149 -19.65080 -19.65080 -19.64927
 Alpha  occ. eigenvalues --  -19.64927 -14.81116 -14.81116 -10.60879 -10.60876
 Alpha  occ. eigenvalues --  -10.60490 -10.60490 -10.60088 -10.59437 -10.59434
 Alpha  occ. eigenvalues --  -10.58646 -10.56482 -10.56482 -10.56088 -10.56088
 Alpha  occ. eigenvalues --  -10.56057 -10.56057 -10.55942 -10.55942 -10.55749
 Alpha  occ. eigenvalues --  -10.55749  -8.48191  -8.48191  -6.40398  -6.40398
 Alpha  occ. eigenvalues --   -6.40350  -6.40350  -6.40263  -6.40263  -1.25377
 Alpha  occ. eigenvalues --   -1.25358  -1.13948  -1.13947  -1.06110  -1.06084
 Alpha  occ. eigenvalues --   -1.00552  -0.95976  -0.95909  -0.90309  -0.88932
 Alpha  occ. eigenvalues --   -0.85384  -0.85218  -0.84610  -0.84498  -0.77598
 Alpha  occ. eigenvalues --   -0.77241  -0.72357  -0.71244  -0.70721  -0.70550
 Alpha  occ. eigenvalues --   -0.69269  -0.66996  -0.64819  -0.62057  -0.61954
 Alpha  occ. eigenvalues --   -0.61277  -0.60804  -0.57749  -0.57514  -0.57326
 Alpha  occ. eigenvalues --   -0.57171  -0.56452  -0.53711  -0.53623  -0.52932
 Alpha  occ. eigenvalues --   -0.52815  -0.52695  -0.50991  -0.50890  -0.49800
 Alpha  occ. eigenvalues --   -0.49619  -0.48234  -0.47007  -0.46324  -0.45489
 Alpha  occ. eigenvalues --   -0.45477  -0.43803  -0.43694  -0.42259  -0.42067
 Alpha  occ. eigenvalues --   -0.41775  -0.41578  -0.41123  -0.40816  -0.40003
 Alpha  occ. eigenvalues --   -0.39285  -0.39197  -0.38293  -0.38020  -0.37820
 Alpha  occ. eigenvalues --   -0.34292  -0.34033  -0.31957  -0.30678  -0.29768
 Alpha  occ. eigenvalues --   -0.29347
 Alpha virt. eigenvalues --   -0.02538  -0.01719   0.01591   0.02202   0.02384
 Alpha virt. eigenvalues --    0.02511   0.09501   0.10837   0.11564   0.11772
 Alpha virt. eigenvalues --    0.12062   0.12889   0.13422   0.14281   0.15275

 Mulliken charges:
               1
     1  C   -0.141303
     2  C    0.171292
     3  C   -0.178814
     4  C   -0.163352
     5  C   -0.149420
     6  C   -0.181700
     7  H    0.201286
     8  N   -0.757324
     9  H    0.175706
    10  H    0.186145
    11  H    0.181669
    12  H    0.176945
    13  H    0.391682
    14  S    1.247959
    15  O   -0.556389
    16  O   -0.561296
    17  C   -0.153648
    18  C   -0.203558
    19  C   -0.105583
    20  C   -0.203559
    21  C   -0.153648
    22  C   -0.163456
    23  H    0.232101
    24  H    0.227200
    25  H    0.232101
    26  H    0.205880
    27  S    1.247959
    28  O   -0.561296
    29  N   -0.757325
    30  O   -0.556389
    31  H    0.391682
    32  C   -0.149420
    33  C   -0.181699
    34  C   -0.141303
    35  C    0.171293
    36  C   -0.178814
    37  C   -0.163354
    38  H    0.181669
    39  H    0.176945
    40  H    0.201287
    41  H    0.175706
    42  H    0.186145
 Sum of Mulliken charges =  -0.00000

 Dipole moment (field-independent basis, Debye):
    X=             -0.0001    Y=              1.7018    Z=             -0.0000  Tot=              1.7018
 Quadrupole moment (field-independent basis, Debye-Ang):
   XX=           -185.3495   YY=           -140.6792   ZZ=           -161.3323
   XY=              0.0000   XZ=             21.4958   YZ=             -0.0001

 Normal termination of Gaussian 16 at Sat Dec  9 23:35:40 2023.
