 Gaussian 16, Revision C.01,
 Gaussian 16:  ES64L-G16RevC.01  3-Jul-2019

 ----------------------------------------------------------------------
 # m062x 6-31g(d) scrf=(iefpcm,solvent=benzene) opt=(maxcycles=50,maxst
 ep=10)
 ----------------------------------------------------------------------

 ------------
 Structure283
 ------------
 Symbolic Z-matrix:
 Charge =  0 Multiplicity = 1

 SCF Done:  E(RM062X) =  -902.435146101     A.U. after   13 cycles
 SCF Done:  E(RM062X) =  -902.443500235     A.U. after   12 cycles
 SCF Done:  E(RM062X) =  -902.449387122     A.U. after   12 cycles
 SCF Done:  E(RM062X) =  -902.447937744     A.U. after   14 cycles
 SCF Done:  E(RM062X) =  -902.450695940     A.U. after   12 cycles
 SCF Done:  E(RM062X) =  -902.451119238     A.U. after   12 cycles
 SCF Done:  E(RM062X) =  -902.451274765     A.U. after   12 cycles
 SCF Done:  E(RM062X) =  -902.451514466     A.U. after   11 cycles
 SCF Done:  E(RM062X) =  -902.451536882     A.U. after   11 cycles
 SCF Done:  E(RM062X) =  -902.451588562     A.U. after    9 cycles
 SCF Done:  E(RM062X) =  -902.451590428     A.U. after    9 cycles
 SCF Done:  E(RM062X) =  -902.451597201     A.U. after    9 cycles
 SCF Done:  E(RM062X) =  -902.451599384     A.U. after    9 cycles
 SCF Done:  E(RM062X) =  -902.451600355     A.U. after    8 cycles
 SCF Done:  E(RM062X) =  -902.451600340     A.U. after    7 cycles
 Optimization completed.
    -- Stationary point found.

                         Standard orientation:
 ---------------------------------------------------------------------
 Center     Atomic      Atomic             Coordinates (Angstroms)
 Number     Number       Type             X           Y           Z
 ---------------------------------------------------------------------
      1          6           0        2.891502   -0.096668   -0.312630
      2          8           0        2.158453   -1.095462   -1.075690
      3          7           0        0.788069   -0.447620    0.550150
      4          6           0        1.762922    0.645121    0.442710
      5          6           0        3.791599   -0.842096    0.667903
      6          6           0        3.713674    0.724454   -1.287246
      7          1           0        2.099606    0.918563    1.446589
      8          6           0        1.161674    1.880865   -0.256322
      9          6           0        1.003806   -1.395110   -0.454151
     10          8           0        0.319904   -2.338910   -0.752661
     11          6           0       -0.131344   -0.514121    1.600539
     12          8           0       -0.013792    0.241268    2.543460
     13          6           0       -1.317321   -1.444911    1.451509
     14          1           0       -1.025363   -2.418531    1.061179
     15          1           0       -1.740798   -1.553789    2.452476
     16          6           0       -4.062153    0.581021   -1.195096
     17          6           0       -3.470694   -0.614195   -1.595107
     18          6           0       -2.593116   -1.285047   -0.744345
     19          6           0       -2.305577   -0.765177    0.518440
     20          6           0       -2.906078    0.433594    0.916731
     21          6           0       -3.778796    1.104391    0.065590
     22          1           0       -4.742686    1.102414   -1.861115
     23          1           0       -3.689046   -1.027884   -2.574938
     24          1           0       -2.117405   -2.207048   -1.061553
     25          1           0       -2.676744    0.840316    1.899427
     26          1           0       -4.238264    2.034238    0.386649
     27          6           0        0.385091    1.529911   -1.530500
     28          6           0        0.261261    2.684307    0.686647
     29          1           0        2.015215    2.519201   -0.520595
     30          1           0       -0.521990    0.966015   -1.280264
     31          1           0        0.071536    2.446897   -2.038128
     32          1           0        0.966651    0.932700   -2.238817
     33          1           0       -0.009545    3.635218    0.216940
     34          1           0       -0.664789    2.142210    0.899854
     35          1           0        0.755046    2.894434    1.639801
     36          1           0        4.408756   -0.131431    1.225003
     37          1           0        3.195598   -1.417698    1.383160
     38          1           0        4.446146   -1.528122    0.124464
     39          1           0        4.257957    1.504763   -0.747366
     40          1           0        4.443052    0.074928   -1.778363
     41          1           0        3.095376    1.192737   -2.054352
 ---------------------------------------------------------------------

 The electronic state is 1-A.
 Alpha  occ. eigenvalues --  -19.69137 -19.63654 -19.63545 -14.81582 -10.71984
 Alpha  occ. eigenvalues --  -10.67748 -10.63186 -10.60123 -10.56408 -10.55897
 Alpha  occ. eigenvalues --  -10.55855 -10.55136 -10.55110 -10.55023 -10.54986
 Alpha  occ. eigenvalues --  -10.54947 -10.54870 -10.54748 -10.53428 -10.53112
 Alpha  occ. eigenvalues --   -1.25705  -1.18430  -1.15936  -1.05835  -0.96290
 Alpha  occ. eigenvalues --   -0.93196  -0.89389  -0.88385  -0.83931  -0.81632
 Alpha  occ. eigenvalues --   -0.79998  -0.78306  -0.77446  -0.74917  -0.70846
 Alpha  occ. eigenvalues --   -0.68780  -0.67292  -0.65984  -0.62502  -0.59562
 Alpha  occ. eigenvalues --   -0.58840  -0.57619  -0.55957  -0.55378  -0.53771
 Alpha  occ. eigenvalues --   -0.53134  -0.52631  -0.51775  -0.50828  -0.50226
 Alpha  occ. eigenvalues --   -0.49766  -0.48906  -0.48255  -0.47696  -0.46723
 Alpha  occ. eigenvalues --   -0.46427  -0.46138  -0.45458  -0.45030  -0.44162
 Alpha  occ. eigenvalues --   -0.44002  -0.43094  -0.41970  -0.40942  -0.40260
 Alpha  occ. eigenvalues --   -0.39649  -0.39325  -0.38893  -0.36785  -0.36135
 Alpha  occ. eigenvalues --   -0.34729  -0.33006  -0.30271  -0.29535
 Alpha virt. eigenvalues --    0.01403   0.03073   0.04529   0.09681   0.11401
 Alpha virt. eigenvalues --    0.13796   0.14579   0.14690   0.16201   0.16703
 Alpha virt. eigenvalues --    0.16899   0.17975   0.18323   0.18801   0.19371

 Mulliken charges:
               1
     1  C    0.218748
     2  O   -0.511395
     3  N   -0.558116
     4  C   -0.016152
     5  C   -0.475307
     6  C   -0.491012
     7  H    0.199587
     8  C   -0.119528
     9  C    0.829473
    10  O   -0.509704
    11  C    0.601004
    12  O   -0.495402
    13  C   -0.428034
    14  H    0.218685
    15  H    0.203093
    16  C   -0.169570
    17  C   -0.171073
    18  C   -0.198533
    19  C    0.075109
    20  C   -0.196264
    21  C   -0.168605
    22  H    0.171648
    23  H    0.174191
    24  H    0.192514
    25  H    0.180482
    26  H    0.173404
    27  C   -0.503501
    28  C   -0.472771
    29  H    0.158153
    30  H    0.169521
    31  H    0.170942
    32  H    0.170931
    33  H    0.159709
    34  H    0.164214
    35  H    0.165892
    36  H    0.175996
    37  H    0.176270
    38  H    0.186116
    39  H    0.177924
    40  H    0.187096
    41  H    0.184266
 Sum of Mulliken charges =  -0.00000

 Dipole moment (field-independent basis, Debye):
    X=              2.1882    Y=              2.4702    Z=             -0.5647  Tot=              3.3480
 Quadrupole moment (field-independent basis, Debye-Ang):
   XX=           -104.3488   YY=           -120.3263   ZZ=           -123.8115
   XY=              1.0978   XZ=              3.4248   YZ=             -6.3596

 Normal termination of Gaussian 16 at Sat Dec  9 23:25:44 2023.
