 Gaussian 16, Revision C.01,
 Gaussian 16:  ES64L-G16RevC.01  3-Jul-2019

 ----------------------------------------------------------------------
 # m062x 6-31g(d) scrf=(iefpcm,solvent=benzene) opt=(maxcycles=50,maxst
 ep=10)
 ----------------------------------------------------------------------

 ----------
 Structure1
 ----------
 Symbolic Z-matrix:
 Charge =  0 Multiplicity = 1

 SCF Done:  E(RM062X) =  -1821.40961920     A.U. after   13 cycles
 SCF Done:  E(RM062X) =  -1821.41643493     A.U. after   11 cycles
 SCF Done:  E(RM062X) =  -1821.42163278     A.U. after   12 cycles
 SCF Done:  E(RM062X) =  -1821.42230044     A.U. after   11 cycles
 SCF Done:  E(RM062X) =  -1821.41930143     A.U. after   12 cycles
 SCF Done:  E(RM062X) =  -1821.42135565     A.U. after   12 cycles
 SCF Done:  E(RM062X) =  -1821.42327992     A.U. after    9 cycles
 SCF Done:  E(RM062X) =  -1821.42351513     A.U. after   10 cycles
 SCF Done:  E(RM062X) =  -1821.42353877     A.U. after   10 cycles
 SCF Done:  E(RM062X) =  -1821.42355016     A.U. after    9 cycles
 SCF Done:  E(RM062X) =  -1821.42356027     A.U. after    8 cycles
 SCF Done:  E(RM062X) =  -1821.42356138     A.U. after    8 cycles
 SCF Done:  E(RM062X) =  -1821.42356177     A.U. after    7 cycles
 SCF Done:  E(RM062X) =  -1821.42356202     A.U. after    7 cycles
 SCF Done:  E(RM062X) =  -1821.42356237     A.U. after    7 cycles
 SCF Done:  E(RM062X) =  -1821.42356269     A.U. after    8 cycles
 SCF Done:  E(RM062X) =  -1821.42356300     A.U. after    7 cycles
 SCF Done:  E(RM062X) =  -1821.42356337     A.U. after    8 cycles
 SCF Done:  E(RM062X) =  -1821.42356348     A.U. after    6 cycles
 SCF Done:  E(RM062X) =  -1821.42356354     A.U. after    6 cycles
 Optimization completed.
    -- Stationary point found.

                         Standard orientation:
 ---------------------------------------------------------------------
 Center     Atomic      Atomic             Coordinates (Angstroms)
 Number     Number       Type             X           Y           Z
 ---------------------------------------------------------------------
      1          6           0       -2.503836   -1.550297   -0.042329
      2          6           0       -3.490442   -0.603492    0.183576
      3          6           0       -3.216948    0.760125    0.102185
      4          6           0       -1.927007    1.147705   -0.227863
      5          6           0       -0.921544    0.219332   -0.483401
      6          6           0       -1.204685   -1.145923   -0.377378
      7          1           0       -2.735372   -2.607996    0.034874
      8          6           0       -4.869637   -1.046449    0.589259
      9          1           0       -3.994010    1.495015    0.278590
     10          6           0       -1.567007    2.605638   -0.296888
     11          1           0        0.066240    0.575491   -0.765440
     12          7           0       -0.261092   -2.145467   -0.660847
     13          9           0       -2.646433    3.386221   -0.415511
     14          9           0       -0.761061    2.864296   -1.340797
     15          9           0       -0.908556    2.998661    0.805011
     16          9           0       -5.017056   -1.020622    1.922207
     17          9           0       -5.811322   -0.243910    0.075802
     18          9           0       -5.131829   -2.296109    0.185806
     19          1           0       -0.609993   -2.991931   -1.092728
     20          6           0        1.112825   -2.092704   -0.608142
     21         16           0        2.012959   -3.227173   -1.467467
     22          7           0        1.643517   -1.131634    0.155010
     23          1           0        1.025857   -0.510626    0.665176
     24          6           0        5.319164   -1.245643    1.182953
     25          6           0        3.838810   -1.631148    1.210169
     26          6           0        3.057195   -0.785693    0.200608
     27          6           0        3.191373    0.708509    0.530292
     28          6           0        4.678792    1.093220    0.461270
     29          6           0        5.503179    0.251272    1.441530
     30          1           0        5.735310   -1.498999    0.198644
     31          1           0        5.873586   -1.832813    1.921919
     32          1           0        3.421759   -1.463381    2.212576
     33          1           0        3.701821   -2.688114    0.964217
     34          1           0        3.467044   -0.986366   -0.796517
     35          7           0        2.263070    1.518921   -0.266875
     36          1           0        2.866652    0.839648    1.575953
     37          1           0        5.050772    0.934857   -0.559810
     38          1           0        4.800367    2.157542    0.687980
     39          1           0        5.183055    0.481998    2.466894
     40          1           0        6.561052    0.524672    1.371443
     41          6           0        2.480214    1.445698   -1.706426
     42          6           0        2.221200    2.905266    0.177315
     43          1           0        3.449713    1.862163   -2.025519
     44          1           0        2.413656    0.409465   -2.052875
     45          1           0        1.688722    2.015445   -2.202947
     46          1           0        3.150351    3.458891   -0.035262
     47          1           0        1.399265    3.417706   -0.326932
     48          1           0        2.034788    2.940037    1.255180
 ---------------------------------------------------------------------

 The electronic state is 1-A.
 Alpha  occ. eigenvalues --  -89.86643 -25.29791 -25.29680 -25.29562 -25.29352
 Alpha  occ. eigenvalues --  -25.29200 -25.28891 -14.81690 -14.80827 -14.76171
 Alpha  occ. eigenvalues --  -10.81306 -10.81134 -10.67904 -10.63418 -10.59957
 Alpha  occ. eigenvalues --  -10.59925 -10.59178 -10.59099 -10.58925 -10.58650
 Alpha  occ. eigenvalues --  -10.58485 -10.56548 -10.56337 -10.54565 -10.54474
 Alpha  occ. eigenvalues --  -10.54297 -10.54245  -8.21348  -6.13478  -6.13031
 Alpha  occ. eigenvalues --   -6.12819  -1.46711  -1.46526  -1.37541  -1.37341
 Alpha  occ. eigenvalues --   -1.37045  -1.36849  -1.12368  -1.05741  -1.03194
 Alpha  occ. eigenvalues --   -1.00082  -0.93344  -0.92153  -0.89775  -0.84784
 Alpha  occ. eigenvalues --   -0.84104  -0.82229  -0.81447  -0.81065  -0.80199
 Alpha  occ. eigenvalues --   -0.75093  -0.74111  -0.73787  -0.72124  -0.70107
 Alpha  occ. eigenvalues --   -0.69330  -0.69073  -0.68851  -0.68301  -0.66976
 Alpha  occ. eigenvalues --   -0.66652  -0.65538  -0.63290  -0.61456  -0.60414
 Alpha  occ. eigenvalues --   -0.59175  -0.57970  -0.57345  -0.56930  -0.56649
 Alpha  occ. eigenvalues --   -0.56576  -0.55504  -0.54901  -0.53708  -0.53629
 Alpha  occ. eigenvalues --   -0.53045  -0.52698  -0.52620  -0.52075  -0.51735
 Alpha  occ. eigenvalues --   -0.50953  -0.50692  -0.50463  -0.49883  -0.49521
 Alpha  occ. eigenvalues --   -0.48955  -0.48702  -0.47187  -0.46611  -0.46149
 Alpha  occ. eigenvalues --   -0.45171  -0.44586  -0.43736  -0.43483  -0.42964
 Alpha  occ. eigenvalues --   -0.42498  -0.41104  -0.40713  -0.39196  -0.38918
 Alpha  occ. eigenvalues --   -0.37388  -0.36405  -0.34674  -0.30087  -0.28286
 Alpha  occ. eigenvalues --   -0.27429  -0.26631
 Alpha virt. eigenvalues --   -0.01936  -0.01464   0.04444   0.10629   0.11287
 Alpha virt. eigenvalues --    0.12201   0.12930   0.14586   0.14771   0.15612
 Alpha virt. eigenvalues --    0.16278   0.17241   0.17468   0.17960   0.18630

 Mulliken charges:
               1
     1  C   -0.197374
     2  C   -0.086166
     3  C   -0.188092
     4  C   -0.094512
     5  C   -0.191985
     6  C    0.285281
     7  H    0.214146
     8  C    0.837082
     9  H    0.221434
    10  C    0.841443
    11  H    0.247015
    12  N   -0.736842
    13  F   -0.273295
    14  F   -0.274764
    15  F   -0.268936
    16  F   -0.267794
    17  F   -0.275603
    18  F   -0.276166
    19  H    0.394403
    20  C    0.375875
    21  S   -0.341920
    22  N   -0.609033
    23  H    0.376475
    24  C   -0.308911
    25  C   -0.285848
    26  C    0.007795
    27  C   -0.000134
    28  C   -0.315184
    29  C   -0.303804
    30  H    0.160758
    31  H    0.166062
    32  H    0.146425
    33  H    0.189975
    34  H    0.189038
    35  N   -0.453691
    36  H    0.145679
    37  H    0.158905
    38  H    0.166411
    39  H    0.151086
    40  H    0.164719
    41  C   -0.350820
    42  C   -0.330871
    43  H    0.154352
    44  H    0.180603
    45  H    0.174186
    46  H    0.142852
    47  H    0.172441
    48  H    0.167305
 Sum of Mulliken charges =  -0.00000

 Dipole moment (field-independent basis, Debye):
    X=              0.9990    Y=              3.0665    Z=              2.0953  Tot=              3.8460
 Quadrupole moment (field-independent basis, Debye-Ang):
   XX=           -163.9127   YY=           -176.5313   ZZ=           -167.0305
   XY=             13.3847   XZ=              9.1640   YZ=             -5.9906

 Normal termination of Gaussian 16 at Sat Dec  9 23:48:42 2023.
