 Gaussian 16, Revision C.01,
 Gaussian 16:  ES64L-G16RevC.01  3-Jul-2019

 ----------------------------------------------------------------------
 # m062x 6-31g(d) scrf=(iefpcm,solvent=benzene) opt=(maxcycles=50,maxst
 ep=10)
 ----------------------------------------------------------------------

 ----------
 Structure2
 ----------
 Symbolic Z-matrix:
 Charge =  0 Multiplicity = 1

 SCF Done:  E(RM062X) =  -1873.77743634     A.U. after   14 cycles
 SCF Done:  E(RM062X) =  -1873.78630182     A.U. after   11 cycles
 SCF Done:  E(RM062X) =  -1873.79384817     A.U. after   12 cycles
 SCF Done:  E(RM062X) =  -1873.79450622     A.U. after   12 cycles
 SCF Done:  E(RM062X) =  -1873.79629455     A.U. after   11 cycles
 SCF Done:  E(RM062X) =  -1873.79645821     A.U. after   10 cycles
 SCF Done:  E(RM062X) =  -1873.79646242     A.U. after   10 cycles
 SCF Done:  E(RM062X) =  -1873.79660894     A.U. after    9 cycles
 SCF Done:  E(RM062X) =  -1873.79663682     A.U. after    9 cycles
 SCF Done:  E(RM062X) =  -1873.79666070     A.U. after   10 cycles
 SCF Done:  E(RM062X) =  -1873.79667211     A.U. after    8 cycles
 SCF Done:  E(RM062X) =  -1873.79669457     A.U. after   10 cycles
 SCF Done:  E(RM062X) =  -1873.79670090     A.U. after    9 cycles
 SCF Done:  E(RM062X) =  -1873.79670895     A.U. after    8 cycles
 SCF Done:  E(RM062X) =  -1873.79671228     A.U. after    8 cycles
 SCF Done:  E(RM062X) =  -1873.79671260     A.U. after    7 cycles
 SCF Done:  E(RM062X) =  -1873.79671264     A.U. after    7 cycles
 SCF Done:  E(RM062X) =  -1873.79671266     A.U. after    6 cycles
 Optimization completed.
    -- Stationary point found.

                         Standard orientation:
 ---------------------------------------------------------------------
 Center     Atomic      Atomic             Coordinates (Angstroms)
 Number     Number       Type             X           Y           Z
 ---------------------------------------------------------------------
      1          6           0       -2.894919   -0.333051    0.088484
      2          6           0       -3.588864    0.697009    0.678812
      3          6           0       -0.819605    0.984822    0.286847
      4          6           0       -1.488906   -0.171076   -0.061951
      5          1           0       -4.663847    0.601489    0.809137
      6          8           0       -0.788315   -1.201890   -0.685717
      7          6           0        3.359788    1.314652   -0.696273
      8          6           0        2.907034    0.224248    0.006542
      9          6           0        1.520631    0.184164    0.315348
     10          6           0        0.617637    1.148558   -0.064915
     11          1           0        4.418071    1.394825   -0.932078
     12          8           0        1.046706   -0.918814    1.019584
     13          6           0       -2.943485    1.859340    1.166490
     14          6           0       -1.541350    2.008010    0.985217
     15          6           0       -0.905459    3.155262    1.533024
     16          6           0       -1.632926    4.110402    2.196614
     17          6           0       -3.033811    3.975481    2.348759
     18          6           0       -3.671313    2.871197    1.847938
     19          1           0        0.169181    3.264093    1.433185
     20          1           0       -1.128789    4.975365    2.615811
     21          1           0       -3.595694    4.742000    2.872710
     22          1           0       -4.743297    2.743753    1.971645
     23          6           0        1.091045    2.248161   -0.856785
     24          6           0        2.482785    2.334672   -1.143690
     25          6           0        2.971679    3.426407   -1.909598
     26          6           0        2.116705    4.377606   -2.400544
     27          6           0        0.727653    4.268655   -2.154943
     28          6           0        0.226950    3.234165   -1.405253
     29          1           0        4.038654    3.482764   -2.107306
     30          1           0        2.497797    5.205769   -2.989317
     31          1           0        0.050002    5.008200   -2.569491
     32          1           0       -0.841200    3.158053   -1.236332
     33         15           0        0.290576   -2.046847    0.155264
     34          8           0        1.257525   -2.428087   -1.051119
     35          1           0        1.828647   -3.183303   -0.831582
     36          8           0       -0.175306   -3.146072    1.007843
     37          6           0       -5.103233   -3.711198   -1.359387
     38          6           0       -3.987659   -3.912046   -0.549310
     39          6           0       -3.249201   -2.828727   -0.082378
     40          6           0       -3.623573   -1.524247   -0.422529
     41          6           0       -4.747084   -1.330028   -1.234452
     42          6           0       -5.482204   -2.415600   -1.700918
     43          1           0       -5.674034   -4.560140   -1.722922
     44          1           0       -3.689575   -4.918720   -0.272925
     45          1           0       -2.391578   -3.000097    0.560413
     46          1           0       -5.032268   -0.319322   -1.513522
     47          1           0       -6.347044   -2.247982   -2.335487
     48          6           0        5.577430   -2.975244    1.016527
     49          6           0        5.580148   -2.428009   -0.264221
     50          6           0        4.704334   -1.393902   -0.582524
     51          6           0        3.815798   -0.890508    0.375137
     52          6           0        3.817798   -1.449700    1.659414
     53          6           0        4.694625   -2.482592    1.975839
     54          1           0        6.257569   -3.783685    1.265751
     55          1           0        6.259397   -2.810171   -1.019940
     56          1           0        4.690179   -0.981433   -1.587549
     57          1           0        3.135150   -1.068544    2.411463
     58          1           0        4.688467   -2.902592    2.976739
 ---------------------------------------------------------------------

 The electronic state is 1-A.
 Alpha  occ. eigenvalues --  -78.22855 -19.69977 -19.69789 -19.69386 -19.62043
 Alpha  occ. eigenvalues --  -10.63466 -10.63128 -10.58022 -10.57969 -10.57630
 Alpha  occ. eigenvalues --  -10.57511 -10.57383 -10.57307 -10.56982 -10.56961
 Alpha  occ. eigenvalues --  -10.56761 -10.56644 -10.56327 -10.56119 -10.55958
 Alpha  occ. eigenvalues --  -10.55838 -10.55832 -10.55800 -10.55753 -10.55749
 Alpha  occ. eigenvalues --  -10.55685 -10.55669 -10.55654 -10.55624 -10.55624
 Alpha  occ. eigenvalues --  -10.55592 -10.55499 -10.54999 -10.54844 -10.54765
 Alpha  occ. eigenvalues --  -10.54597 -10.54367  -7.00940  -5.12759  -5.12690
 Alpha  occ. eigenvalues --   -5.12548  -1.25589  -1.19287  -1.18214  -1.10284
 Alpha  occ. eigenvalues --   -1.00269  -0.98884  -0.96897  -0.96157  -0.93870
 Alpha  occ. eigenvalues --   -0.93011  -0.91155  -0.87054  -0.86590  -0.86255
 Alpha  occ. eigenvalues --   -0.84647  -0.84353  -0.83702  -0.82916  -0.81943
 Alpha  occ. eigenvalues --   -0.80437  -0.77026  -0.73264  -0.72421  -0.71861
 Alpha  occ. eigenvalues --   -0.70663  -0.69147  -0.69000  -0.68264  -0.67481
 Alpha  occ. eigenvalues --   -0.66974  -0.65675  -0.64592  -0.62904  -0.61394
 Alpha  occ. eigenvalues --   -0.61044  -0.59735  -0.59153  -0.57574  -0.56523
 Alpha  occ. eigenvalues --   -0.56208  -0.55819  -0.55069  -0.53991  -0.53188
 Alpha  occ. eigenvalues --   -0.53110  -0.52520  -0.51573  -0.51264  -0.51234
 Alpha  occ. eigenvalues --   -0.50642  -0.50268  -0.50067  -0.49306  -0.49090
 Alpha  occ. eigenvalues --   -0.48990  -0.48727  -0.48261  -0.47579  -0.46900
 Alpha  occ. eigenvalues --   -0.46834  -0.46143  -0.45752  -0.45142  -0.44229
 Alpha  occ. eigenvalues --   -0.43702  -0.43345  -0.42615  -0.42160  -0.41819
 Alpha  occ. eigenvalues --   -0.41006  -0.40796  -0.40511  -0.39997  -0.39442
 Alpha  occ. eigenvalues --   -0.39153  -0.38613  -0.38575  -0.38024  -0.37819
 Alpha  occ. eigenvalues --   -0.35781  -0.34345  -0.32109  -0.31445  -0.30947
 Alpha  occ. eigenvalues --   -0.30014  -0.28836  -0.28331  -0.27276  -0.26073
 Alpha virt. eigenvalues --   -0.03042  -0.01768   0.00162   0.00680   0.02891
 Alpha virt. eigenvalues --    0.03760   0.03969   0.04478   0.05429   0.07204
 Alpha virt. eigenvalues --    0.08688   0.12760   0.13110   0.13531   0.14203

 Mulliken charges:
               1
     1  C    0.045001
     2  C   -0.265895
     3  C    0.016344
     4  C    0.233004
     5  H    0.184476
     6  O   -0.615317
     7  C   -0.272248
     8  C    0.080241
     9  C    0.215620
    10  C    0.006917
    11  H    0.184446
    12  O   -0.618458
    13  C    0.095966
    14  C    0.029841
    15  C   -0.192192
    16  C   -0.176343
    17  C   -0.176724
    18  C   -0.203523
    19  H    0.184619
    20  H    0.178011
    21  H    0.177580
    22  H    0.178482
    23  C    0.043511
    24  C    0.093159
    25  C   -0.205429
    26  C   -0.175426
    27  C   -0.177313
    28  C   -0.190868
    29  H    0.177783
    30  H    0.178069
    31  H    0.178669
    32  H    0.186706
    33  P    1.263601
    34  O   -0.665073
    35  H    0.484871
    36  O   -0.565470
    37  C   -0.164193
    38  C   -0.187656
    39  C   -0.192832
    40  C    0.047624
    41  C   -0.181807
    42  C   -0.178307
    43  H    0.170823
    44  H    0.175247
    45  H    0.219841
    46  H    0.169634
    47  H    0.171308
    48  C   -0.167158
    49  C   -0.180004
    50  C   -0.189009
    51  C    0.021228
    52  C   -0.172822
    53  C   -0.179036
    54  H    0.176430
    55  H    0.176752
    56  H    0.177704
    57  H    0.189501
    58  H    0.180092
 Sum of Mulliken charges =  -0.00000

 Dipole moment (field-independent basis, Debye):
    X=              2.0763    Y=              2.9992    Z=             -1.4235  Tot=              3.9157
 Quadrupole moment (field-independent basis, Debye-Ang):
   XX=           -183.0166   YY=           -195.2808   ZZ=           -215.2006
   XY=            -12.1272   XZ=             -2.9134   YZ=              3.4972

 Normal termination of Gaussian 16 at Sun Dec 10 00:09:35 2023.
