 Gaussian 16, Revision C.01,
 Gaussian 16:  ES64L-G16RevC.01  3-Jul-2019

 ----------------------------------------------------------------------
 # m062x chkbasis guess=read geom=allchk scrf=(iefpcm,solvent=benzene)
 opt=(maxcycles=50,maxstep=10)
 ----------------------------------------------------------------------

 Structure from the checkpoint file:  "urea_cinchrona_OPLS3e_5000_steps_1_opt.chk"
 -------------
 Molecule Name
 -------------
 Charge =  1 Multiplicity = 1

 SCF Done:  E(RM062X) =  -2052.05373187     A.U. after    1 cycles
 SCF Done:  E(RM062X) =  -2052.05674631     A.U. after   12 cycles
 SCF Done:  E(RM062X) =  -2052.05918472     A.U. after   10 cycles
 SCF Done:  E(RM062X) =  -2052.05296373     A.U. after   12 cycles
 SCF Done:  E(RM062X) =  -2052.05924797     A.U. after   11 cycles
 SCF Done:  E(RM062X) =  -2052.05842303     A.U. after   12 cycles
 SCF Done:  E(RM062X) =  -2052.05937868     A.U. after   12 cycles
 SCF Done:  E(RM062X) =  -2052.05967105     A.U. after   11 cycles
 SCF Done:  E(RM062X) =  -2052.05961154     A.U. after   10 cycles
 SCF Done:  E(RM062X) =  -2052.05981898     A.U. after   10 cycles
 SCF Done:  E(RM062X) =  -2052.05984473     A.U. after    9 cycles
 SCF Done:  E(RM062X) =  -2052.05985236     A.U. after    9 cycles
 SCF Done:  E(RM062X) =  -2052.05985540     A.U. after    9 cycles
 SCF Done:  E(RM062X) =  -2052.05985820     A.U. after    9 cycles
 SCF Done:  E(RM062X) =  -2052.05985865     A.U. after    7 cycles
 SCF Done:  E(RM062X) =  -2052.05986202     A.U. after    8 cycles
 SCF Done:  E(RM062X) =  -2052.05986307     A.U. after    7 cycles
 SCF Done:  E(RM062X) =  -2052.05986297     A.U. after    7 cycles
 SCF Done:  E(RM062X) =  -2052.05986346     A.U. after    7 cycles
 SCF Done:  E(RM062X) =  -2052.05986352     A.U. after    6 cycles
 Optimization completed.
    -- Stationary point found.

                         Standard orientation:
 ---------------------------------------------------------------------
 Center     Atomic      Atomic             Coordinates (Angstroms)
 Number     Number       Type             X           Y           Z
 ---------------------------------------------------------------------
      1          6           0       -0.359640   -2.438246   -0.564425
      2          7           0       -0.649223   -1.253348    0.046786
      3          6           0       -1.893027   -1.058426    0.800971
      4          6           0       -3.095880   -0.734110   -0.110800
      5          1           0       -2.113685   -1.977162    1.358994
      6          6           0       -1.672052    0.056267    1.808548
      7          1           0       -2.758274   -0.026789   -0.870758
      8          6           0       -4.335634   -0.183935    0.613745
      9          7           0       -3.549250   -1.944643   -0.901360
     10          6           0       -1.201919    1.351614    1.414973
     11          6           0       -1.916557   -0.174807    3.137033
     12          6           0       -5.595811   -0.678666   -0.116770
     13          1           0       -4.272564    0.906906    0.644959
     14          1           0       -4.359665   -0.529036    1.654360
     15          6           0       -4.406488   -2.863713   -0.074212
     16          6           0       -4.314298   -1.472716   -2.104733
     17          6           0       -0.894881    1.728049    0.086211
     18          6           0       -1.015136    2.308807    2.456360
     19          6           0       -1.712826    0.861023    4.084456
     20          1           0       -2.259765   -1.147366    3.477914
     21          6           0       -5.756221   -2.174430    0.190914
     22          1           0       -6.472051   -0.122953    0.226269
     23          6           0       -5.443914   -0.516356   -1.642276
     24          1           0       -3.853423   -3.080555    0.840846
     25          1           0       -4.498328   -3.795233   -0.634828
     26          1           0       -3.598361   -0.981397   -2.768672
     27          1           0       -4.694726   -2.365766   -2.604483
     28          6           0       -0.405014    2.986011   -0.203638
     29          1           0       -1.003338    1.040782   -0.744231
     30          6           0       -0.522049    3.595600    2.124517
     31          7           0       -1.279169    2.054196    3.768399
     32          1           0       -1.914715    0.672026    5.136139
     33          1           0       -6.045169   -2.327272    1.233503
     34          1           0       -6.540401   -2.608863   -0.436338
     35          1           0       -6.375303   -0.862512   -2.102300
     36          6           0       -5.213655    0.930618   -2.078192
     37          6           0       -0.215295    3.936108    0.833011
     38          8           0       -0.128346    3.225547   -1.501850
     39          1           0       -0.388282    4.301656    2.937097
     40          1           0       -5.166823    1.002542   -3.168402
     41          1           0       -6.036242    1.564147   -1.734551
     42          1           0       -4.283354    1.347086   -1.677374
     43          1           0        0.171073    4.923800    0.612289
     44          6           0        0.483648    4.458527   -1.847797
     45          1           0        0.688744    4.396292   -2.915447
     46          1           0       -0.188007    5.300820   -1.651538
     47          1           0        1.422697    4.594602   -1.303551
     48          7           0        0.934778   -2.640965   -0.952095
     49          8           0       -1.225867   -3.293481   -0.791363
     50          1           0        0.133457   -0.690322    0.361106
     51          1           0        1.105445   -3.575226   -1.305476
     52          6           0        2.042774   -1.782253   -0.749353
     53          6           0        2.002054   -0.450073   -1.167839
     54          6           0        3.201505   -2.290888   -0.162506
     55          6           0        3.107985    0.367999   -0.958658
     56          1           0        1.127225   -0.059866   -1.679752
     57          6           0        4.304349   -1.463550    0.009724
     58          1           0        3.239956   -3.328585    0.154214
     59          6           0        4.267730   -0.127456   -0.374982
     60          1           0        5.133934    0.509986   -0.237893
     61          6           0        5.532375   -2.015956    0.685943
     62          6           0        3.034604    1.818229   -1.359244
     63          9           0        6.631211   -1.340426    0.336194
     64          9           0        5.421749   -1.942437    2.019020
     65          9           0        5.719590   -3.304396    0.374480
     66          9           0        2.496889    2.563620   -0.377800
     67          9           0        4.245405    2.320616   -1.618203
     68          9           0        2.273330    1.992716   -2.446187
     69          1           0       -2.700246   -2.491809   -1.161923
 ---------------------------------------------------------------------

 The electronic state is 1-A.
 Alpha  occ. eigenvalues --  -25.32790 -25.32757 -25.32453 -25.32280 -25.32225
 Alpha  occ. eigenvalues --  -25.31699 -19.71411 -19.68400 -14.92690 -14.86028
 Alpha  occ. eigenvalues --  -14.85662 -14.80429 -10.84575 -10.84084 -10.75932
 Alpha  occ. eigenvalues --  -10.67920 -10.67726 -10.67254 -10.66417 -10.66367
 Alpha  occ. eigenvalues --  -10.66364 -10.63754 -10.63559 -10.63390 -10.63244
 Alpha  occ. eigenvalues --  -10.63085 -10.63021 -10.62949 -10.62906 -10.62793
 Alpha  occ. eigenvalues --  -10.62203 -10.62041 -10.61816 -10.61637 -10.61317
 Alpha  occ. eigenvalues --  -10.61204 -10.60071 -10.59939 -10.59717 -10.58942
 Alpha  occ. eigenvalues --   -1.49862  -1.49377  -1.40651  -1.40209  -1.40180
 Alpha  occ. eigenvalues --   -1.39706  -1.25007  -1.23517  -1.18659  -1.12870
 Alpha  occ. eigenvalues --   -1.10574  -1.09646  -1.03973  -1.00117  -0.99498
 Alpha  occ. eigenvalues --   -0.98382  -0.95718  -0.94882  -0.94582  -0.92726
 Alpha  occ. eigenvalues --   -0.90038  -0.89349  -0.87184  -0.85342  -0.85138
 Alpha  occ. eigenvalues --   -0.84706  -0.82993  -0.80816  -0.79775  -0.78503
 Alpha  occ. eigenvalues --   -0.77830  -0.77077  -0.76207  -0.75602  -0.74472
 Alpha  occ. eigenvalues --   -0.73848  -0.73000  -0.72258  -0.72131  -0.71695
 Alpha  occ. eigenvalues --   -0.71518  -0.70863  -0.68978  -0.67567  -0.66478
 Alpha  occ. eigenvalues --   -0.66054  -0.65371  -0.64778  -0.64314  -0.63845
 Alpha  occ. eigenvalues --   -0.63296  -0.62591  -0.62031  -0.61050  -0.60496
 Alpha  occ. eigenvalues --   -0.59980  -0.59571  -0.59433  -0.58884  -0.58520
 Alpha  occ. eigenvalues --   -0.58056  -0.57676  -0.57217  -0.56606  -0.56298
 Alpha  occ. eigenvalues --   -0.56135  -0.55811  -0.55644  -0.55567  -0.55492
 Alpha  occ. eigenvalues --   -0.55293  -0.54912  -0.54015  -0.53816  -0.53515
 Alpha  occ. eigenvalues --   -0.53476  -0.53270  -0.52981  -0.52796  -0.52699
 Alpha  occ. eigenvalues --   -0.52351  -0.51954  -0.51486  -0.51256  -0.51210
 Alpha  occ. eigenvalues --   -0.49504  -0.49313  -0.48961  -0.47979  -0.47600
 Alpha  occ. eigenvalues --   -0.47219  -0.46576  -0.46365  -0.44778  -0.43653
 Alpha  occ. eigenvalues --   -0.43328  -0.42987  -0.42541  -0.42043  -0.41623
 Alpha  occ. eigenvalues --   -0.40925  -0.39337  -0.38392  -0.36586  -0.35454
 Alpha  occ. eigenvalues --   -0.34188  -0.30827
 Alpha virt. eigenvalues --   -0.07116  -0.05693  -0.04982  -0.02623   0.00502
 Alpha virt. eigenvalues --    0.02258   0.03857   0.05269   0.06548   0.08033
 Alpha virt. eigenvalues --    0.08385   0.08697   0.09227   0.09289   0.10246

 Mulliken charges:
               1
     1  C    0.833007
     2  N   -0.689982
     3  C   -0.054843
     4  C    0.007050
     5  H    0.208353
     6  C    0.063922
     7  H    0.206604
     8  C   -0.326007
     9  N   -0.596055
    10  C    0.086655
    11  C   -0.244623
    12  C   -0.159356
    13  H    0.213924
    14  H    0.187382
    15  C   -0.203283
    16  C   -0.191830
    17  C   -0.302345
    18  C    0.204238
    19  C    0.027943
    20  H    0.190651
    21  C   -0.329219
    22  H    0.201790
    23  C   -0.150470
    24  H    0.223180
    25  H    0.236267
    26  H    0.224498
    27  H    0.227517
    28  C    0.386659
    29  H    0.175472
    30  C   -0.163713
    31  N   -0.494603
    32  H    0.196172
    33  H    0.206699
    34  H    0.197651
    35  H    0.197361
    36  C   -0.500480
    37  C   -0.214997
    38  O   -0.538971
    39  H    0.205850
    40  H    0.188643
    41  H    0.191663
    42  H    0.168800
    43  H    0.201093
    44  C   -0.265029
    45  H    0.204184
    46  H    0.180181
    47  H    0.179895
    48  N   -0.751361
    49  O   -0.608811
    50  H    0.391396
    51  H    0.399320
    52  C    0.244881
    53  C   -0.195777
    54  C   -0.165219
    55  C   -0.077557
    56  H    0.221755
    57  C   -0.090838
    58  H    0.223600
    59  C   -0.173528
    60  H    0.236162
    61  C    0.845976
    62  C    0.848370
    63  F   -0.269565
    64  F   -0.263620
    65  F   -0.273238
    66  F   -0.263785
    67  F   -0.267905
    68  F   -0.269558
    69  H    0.461804
 Sum of Mulliken charges =   1.00000

 Dipole moment (field-independent basis, Debye):
    X=            -13.1971    Y=             -4.8386    Z=             -3.6500  Tot=             14.5223
 Quadrupole moment (field-independent basis, Debye-Ang):
   XX=           -153.1144   YY=           -189.9808   ZZ=           -215.1396
   XY=             24.1308   XZ=              4.9654   YZ=             -3.6403

 Normal termination of Gaussian 16 at Tue Dec 12 04:25:26 2023.
