 Gaussian 16, Revision C.01,
 Gaussian 16:  ES64L-G16RevC.01  3-Jul-2019

 ----------------------------------------------------------------------
 # m062x 6-31g(d) scrf=(iefpcm,solvent=benzene) opt=(maxcycles=50,maxst
 ep=10)
 ----------------------------------------------------------------------

 -------------
 Structure1518
 -------------
 Symbolic Z-matrix:
 Charge =  1 Multiplicity = 1

 SCF Done:  E(RM062X) =  -463.489094653     A.U. after   12 cycles
 SCF Done:  E(RM062X) =  -463.495051748     A.U. after   10 cycles
 SCF Done:  E(RM062X) =  -463.498852480     A.U. after   11 cycles
 SCF Done:  E(RM062X) =  -463.499204787     A.U. after   10 cycles
 SCF Done:  E(RM062X) =  -463.499718063     A.U. after   10 cycles
 SCF Done:  E(RM062X) =  -463.499890446     A.U. after    9 cycles
 SCF Done:  E(RM062X) =  -463.499974811     A.U. after    9 cycles
 SCF Done:  E(RM062X) =  -463.499981688     A.U. after    8 cycles
 SCF Done:  E(RM062X) =  -463.499988385     A.U. after    8 cycles
 SCF Done:  E(RM062X) =  -463.500007497     A.U. after    8 cycles
 SCF Done:  E(RM062X) =  -463.500448586     A.U. after    7 cycles
 SCF Done:  E(RM062X) =  -463.500448004     A.U. after    9 cycles
 SCF Done:  E(RM062X) =  -463.500455165     A.U. after    8 cycles
 SCF Done:  E(RM062X) =  -463.500444353     A.U. after    9 cycles
 SCF Done:  E(RM062X) =  -463.500460377     A.U. after    9 cycles
 SCF Done:  E(RM062X) =  -463.500454685     A.U. after    8 cycles
 SCF Done:  E(RM062X) =  -463.500460237     A.U. after    8 cycles
 SCF Done:  E(RM062X) =  -463.500462357     A.U. after    7 cycles
 SCF Done:  E(RM062X) =  -463.500462503     A.U. after    7 cycles
 SCF Done:  E(RM062X) =  -463.500462065     A.U. after    6 cycles
 Optimization completed.
    -- Stationary point found.

                         Standard orientation:
 ---------------------------------------------------------------------
 Center     Atomic      Atomic             Coordinates (Angstroms)
 Number     Number       Type             X           Y           Z
 ---------------------------------------------------------------------
      1          6           0       -2.656896    1.120720    0.141790
      2          7           0       -1.570126    0.540811    0.956734
      3          6           0       -1.174031   -0.697287    0.257474
      4          6           0       -2.357051   -1.132437   -0.649481
      5          6           0       -3.451024   -0.083921   -0.370529
      6          1           0       -3.239868    1.823605    0.738874
      7          1           0       -2.213907    1.676111   -0.692840
      8          6           0        0.069862   -0.367487   -0.579047
      9          1           0       -0.922926   -1.463814    0.995930
     10          1           0       -2.059533   -1.115375   -1.703584
     11          1           0       -2.686802   -2.147092   -0.421463
     12          1           0       -4.124639   -0.439170    0.415539
     13          1           0       -4.052564    0.142354   -1.253211
     14          1           0       -0.198545    0.281800   -1.416796
     15          1           0        0.564007   -1.261354   -0.967549
     16          7           0        1.023092    0.405168    0.279174
     17          6           0        2.006830    1.239665   -0.487461
     18          6           0        3.072067    0.228984   -0.906042
     19          6           0        3.105281   -0.804354    0.247504
     20          6           0        1.892752   -0.474706    1.137506
     21          1           0        2.400849    1.981175    0.211744
     22          1           0        1.495447    1.749206   -1.304454
     23          1           0        2.793140   -0.247922   -1.848691
     24          1           0        4.033892    0.719336   -1.057559
     25          1           0        4.021086   -0.727232    0.834683
     26          1           0        3.049002   -1.824208   -0.136600
     27          1           0        2.174053    0.114904    2.011220
     28          1           0        1.318159   -1.341325    1.465056
     29          1           0        0.374152    0.982309    0.855332
     30          1           0       -1.942503    0.299774    1.872719
 ---------------------------------------------------------------------

 The electronic state is 1-A.
 Alpha  occ. eigenvalues --  -14.93843 -14.82215 -10.67239 -10.67140 -10.67105
 Alpha  occ. eigenvalues --  -10.65326 -10.62480 -10.62283 -10.62249 -10.60276
 Alpha  occ. eigenvalues --  -10.59352  -1.19569  -1.09895  -0.97987  -0.92753
 Alpha  occ. eigenvalues --   -0.92309  -0.91042  -0.84700  -0.78408  -0.75581
 Alpha  occ. eigenvalues --   -0.74151  -0.72553  -0.70297  -0.66508  -0.65738
 Alpha  occ. eigenvalues --   -0.62152  -0.60243  -0.59992  -0.56717  -0.55633
 Alpha  occ. eigenvalues --   -0.55258  -0.53554  -0.53327  -0.51310  -0.49635
 Alpha  occ. eigenvalues --   -0.49531  -0.48772  -0.47445  -0.46402  -0.46040
 Alpha  occ. eigenvalues --   -0.45821  -0.44365  -0.37700
 Alpha virt. eigenvalues --    0.02166   0.04887   0.05697   0.06635   0.08098
 Alpha virt. eigenvalues --    0.09234   0.10357   0.10555   0.11744   0.12095
 Alpha virt. eigenvalues --    0.12943   0.13692   0.14694   0.15123   0.15540

 Mulliken charges:
               1
     1  C   -0.193175
     2  N   -0.635036
     3  C   -0.048618
     4  C   -0.336764
     5  C   -0.322477
     6  H    0.202080
     7  H    0.173679
     8  C   -0.191134
     9  H    0.198525
    10  H    0.181680
    11  H    0.199504
    12  H    0.181497
    13  H    0.192377
    14  H    0.217993
    15  H    0.232485
    16  N   -0.555109
    17  C   -0.197185
    18  C   -0.340564
    19  C   -0.344005
    20  C   -0.205539
    21  H    0.230762
    22  H    0.233604
    23  H    0.205222
    24  H    0.224401
    25  H    0.220745
    26  H    0.210885
    27  H    0.235179
    28  H    0.229665
    29  H    0.441492
    30  H    0.357830
 Sum of Mulliken charges =   1.00000

 Dipole moment (field-independent basis, Debye):
    X=              2.6726    Y=              0.2252    Z=              0.8396  Tot=              2.8104
 Quadrupole moment (field-independent basis, Debye-Ang):
   XX=            -41.6175   YY=            -61.3645   ZZ=            -59.8602
   XY=              1.6357   XZ=             -0.6073   YZ=             -1.2511

 Normal termination of Gaussian 16 at Sat Dec  9 23:46:31 2023.
