 Gaussian 16, Revision C.01,
 Gaussian 16:  ES64L-G16RevC.01  3-Jul-2019

 ----------------------------------------------------------------------
 # m062x 6-31g(d) scrf=(iefpcm,solvent=benzene) opt=(calcfc,maxcycles=5
 0,maxstep=10) freq=noraman
 ----------------------------------------------------------------------

 ------------
 Structure193
 ------------
 Symbolic Z-matrix:
 Charge =  0 Multiplicity = 1

 SCF Done:  E(RM062X) =  -1797.86679223     A.U. after   14 cycles
 SCF Done:  E(RM062X) =  -1797.87109426     A.U. after   12 cycles
 SCF Done:  E(RM062X) =  -1797.87223665     A.U. after   12 cycles
 SCF Done:  E(RM062X) =  -1797.87288332     A.U. after   12 cycles
 SCF Done:  E(RM062X) =  -1797.87295316     A.U. after   11 cycles
 SCF Done:  E(RM062X) =  -1797.87296172     A.U. after   10 cycles
 SCF Done:  E(RM062X) =  -1797.87296685     A.U. after   10 cycles
 SCF Done:  E(RM062X) =  -1797.87296786     A.U. after    9 cycles
 SCF Done:  E(RM062X) =  -1797.87296858     A.U. after    9 cycles
 SCF Done:  E(RM062X) =  -1797.87296857     A.U. after    7 cycles
 SCF Done:  E(RM062X) =  -1797.87296856     A.U. after    6 cycles
 Optimization completed.
    -- Stationary point found.
 Normal termination of Gaussian 16 at Thu Dec 14 18:02:34 2023.

 --------------------------------------------------------------------
 #N Geom=AllCheck Guess=TCheck SCRF=Check GenChk RM062X/6-31G(d) Freq
 --------------------------------------------------------------------

 Structure from the checkpoint file:  "boscalid_OPLS3e_1_opt_hess.chk"
 ------------
 Structure193
 ------------
 Charge =  0 Multiplicity = 1

                         Standard orientation:
 ---------------------------------------------------------------------
 Center     Atomic      Atomic             Coordinates (Angstroms)
 Number     Number       Type             X           Y           Z
 ---------------------------------------------------------------------
      1          6           0       -2.027641    0.605478   -0.094790
      2          6           0       -2.789904    0.203731   -1.197515
      3          6           0       -3.337767   -1.072546   -1.262552
      4          6           0       -3.115344   -1.958415   -0.212969
      5          6           0       -2.365129   -1.587711    0.896761
      6          6           0       -1.830646   -0.303973    0.950829
      7          1           0       -2.948616    0.899347   -2.016347
      8          1           0       -3.926143   -1.382638   -2.119169
      9         17           0       -3.794312   -3.564189   -0.289446
     10          1           0       -2.207880   -2.289582    1.708465
     11          1           0       -1.264304    0.002888    1.826195
     12          6           0       -0.547034    4.614216    0.155664
     13          6           0       -1.910559    4.378002    0.022670
     14          6           0       -2.362332    3.065977   -0.064109
     15          6           0       -1.478172    1.986986   -0.021585
     16          6           0       -0.093660    2.241639    0.085284
     17          6           0        0.362143    3.561536    0.184362
     18          1           0       -0.174088    5.630501    0.235224
     19          1           0       -2.616071    5.201676   -0.003781
     20          1           0       -3.425109    2.856485   -0.147516
     21          7           0        0.785555    1.136974    0.055612
     22          1           0        1.420652    3.753914    0.270585
     23          1           0        0.340059    0.228907   -0.004981
     24          6           0        2.145891    1.154882   -0.040016
     25          8           0        2.831463    2.163378   -0.065424
     26          6           0        4.166416   -2.531112   -0.667067
     27          6           0        4.541379   -1.404025   -1.389540
     28          6           0        3.858740   -0.221023   -1.148159
     29          6           0        2.814185   -0.188141   -0.221672
     30          6           0        2.559451   -1.384427    0.459208
     31          7           0        3.200478   -2.516985    0.254082
     32          1           0        4.662960   -3.485637   -0.816724
     33          1           0        5.346445   -1.453374   -2.113110
     34          1           0        4.116005    0.698493   -1.663775
     35         17           0        1.357962   -1.451951    1.736014
 ---------------------------------------------------------------------

 SCF Done:  E(RM062X) =  -1797.87296856     A.U. after    1 cycles

 The electronic state is 1-A.
 Alpha  occ. eigenvalues -- -102.68102-102.67297 -19.63054 -14.81276 -14.78672
 Alpha  occ. eigenvalues --  -10.68095 -10.66749 -10.62306 -10.61025 -10.60980
 Alpha  occ. eigenvalues --  -10.59694 -10.59159 -10.57812 -10.57754 -10.57287
 Alpha  occ. eigenvalues --  -10.57271 -10.57138 -10.57126 -10.57085 -10.55899
 Alpha  occ. eigenvalues --  -10.55544 -10.55212 -10.55074  -9.82882  -9.82053
 Alpha  occ. eigenvalues --   -7.55268  -7.54630  -7.54590  -7.54449  -7.53794
 Alpha  occ. eigenvalues --   -7.53777  -1.18239  -1.09528  -1.06573  -1.00491
 Alpha  occ. eigenvalues --   -0.97229  -0.96552  -0.94330  -0.93364  -0.87519
 Alpha  occ. eigenvalues --   -0.86975  -0.86303  -0.84536  -0.81510  -0.76488
 Alpha  occ. eigenvalues --   -0.72832  -0.72418  -0.71351  -0.70889  -0.67417
 Alpha  occ. eigenvalues --   -0.66373  -0.63636  -0.61583  -0.59483  -0.59332
 Alpha  occ. eigenvalues --   -0.57290  -0.55731  -0.55090  -0.53738  -0.53066
 Alpha  occ. eigenvalues --   -0.52755  -0.51876  -0.51007  -0.50540  -0.50299
 Alpha  occ. eigenvalues --   -0.49966  -0.49153  -0.48877  -0.47528  -0.45726
 Alpha  occ. eigenvalues --   -0.44671  -0.44641  -0.43173  -0.42441  -0.41814
 Alpha  occ. eigenvalues --   -0.40498  -0.40124  -0.39565  -0.38082  -0.37853
 Alpha  occ. eigenvalues --   -0.36960  -0.35862  -0.33734  -0.32800  -0.32206
 Alpha  occ. eigenvalues --   -0.31951  -0.29523  -0.27449
 Alpha virt. eigenvalues --   -0.02441  -0.00512   0.00044   0.01175   0.02860
 Alpha virt. eigenvalues --    0.04004   0.06640   0.07541   0.09073   0.14220
 Alpha virt. eigenvalues --    0.14750   0.15517   0.16633   0.17881   0.18002

 Mulliken charges:
               1
     1  C   -0.011454
     2  C   -0.171150
     3  C   -0.160639
     4  C   -0.111702
     5  C   -0.149091
     6  C   -0.197241
     7  H    0.190564
     8  H    0.202641
     9  Cl  -0.003638
    10  H    0.205306
    11  H    0.197397
    12  C   -0.181157
    13  C   -0.167495
    14  C   -0.199812
    15  C    0.007261
    16  C    0.295374
    17  C   -0.185923
    18  H    0.178114
    19  H    0.175759
    20  H    0.177630
    21  N   -0.762154
    22  H    0.222991
    23  H    0.376930
    24  C    0.602309
    25  O   -0.522119
    26  C    0.029087
    27  C   -0.182591
    28  C   -0.132618
    29  C    0.015192
    30  C    0.052434
    31  N   -0.437844
    32  H    0.203345
    33  H    0.203818
    34  H    0.222147
    35  Cl   0.018329
 Sum of Mulliken charges =   0.00000

 Dipole moment (field-independent basis, Debye):
    X=              0.2714    Y=              0.6177    Z=             -2.7533  Tot=              2.8348
 Quadrupole moment (field-independent basis, Debye-Ang):
   XX=           -133.3865   YY=           -147.7583   ZZ=           -140.1011
   XY=            -15.4337   XZ=             -8.1439   YZ=              2.7935

  Exact polarizability:     264.165       1.911     322.854     -11.803      -6.324     156.210
 Approx polarizability:     278.393      10.590     343.407      -9.713     -14.320     200.829

                      1                      2                      3
                      A                      A                      A
 Frequencies --     10.8029                29.0070                37.9059
 Red. masses --     10.3699                 9.6297                 8.0481
 Frc consts  --      0.0007                 0.0048                 0.0068
 IR Inten    --      0.8579                 0.1412                 3.2249

                      4                      5                      6
                      A                      A                      A
 Frequencies --     55.9949                69.1804                82.5433
 Red. masses --      4.8067                 6.8012                 5.0470
 Frc consts  --      0.0089                 0.0192                 0.0203
 IR Inten    --      0.3360                 1.2502                 0.0786

                      7                      8                      9
                      A                      A                      A
 Frequencies --     90.0541               129.9998               140.1786
 Red. masses --      6.3404                 6.4856                 8.4682
 Frc consts  --      0.0303                 0.0646                 0.0980
 IR Inten    --      4.4904                 1.6439                 0.8032

                     10                     11                     12
                      A                      A                      A
 Frequencies --    185.6193               196.2208               235.4301
 Red. masses --      6.8598                 5.9626                 7.4263
 Frc consts  --      0.1393                 0.1353                 0.2425
 IR Inten    --      1.3079                 0.7714                 0.4132

                     13                     14                     15
                      A                      A                      A
 Frequencies --    253.8739               267.5898               295.1443
 Red. masses --      9.2692                 6.3545                 6.3990
 Frc consts  --      0.3520                 0.2681                 0.3284
 IR Inten    --      3.4164                 0.7382                 1.7332

                     16                     17                     18
                      A                      A                      A
 Frequencies --    334.5558               339.1474               359.6604
 Red. masses --      6.4862                 8.2535                 4.3994
 Frc consts  --      0.4277                 0.5593                 0.3353
 IR Inten    --      6.4766                 6.0370                 2.3569

                     19                     20                     21
                      A                      A                      A
 Frequencies --    421.7006               425.8927               433.8668
 Red. masses --      3.4363                 4.4992                 6.4994
 Frc consts  --      0.3600                 0.4808                 0.7208
 IR Inten    --      0.8083                 6.0901                 4.3933

                     22                     23                     24
                      A                      A                      A
 Frequencies --    450.7026               481.9698               498.1668
 Red. masses --      7.5102                 8.6760                 4.2307
 Frc consts  --      0.8988                 1.1874                 0.6186
 IR Inten    --     24.7963                11.3155                 8.2811

                     25                     26                     27
                      A                      A                      A
 Frequencies --    506.5180               538.9106               555.5382
 Red. masses --      3.7268                 5.5912                 3.4598
 Frc consts  --      0.5634                 0.9567                 0.6291
 IR Inten    --      4.3707                 8.1949                11.3827

                     28                     29                     30
                      A                      A                      A
 Frequencies --    571.2110               606.2320               635.0311
 Red. masses --      3.4423                 6.0051                 1.4629
 Frc consts  --      0.6617                 1.3003                 0.3476
 IR Inten    --      5.0547                 2.6453                47.7749

                     31                     32                     33
                      A                      A                      A
 Frequencies --    645.5494               656.2779               674.3449
 Red. masses --      3.6124                 7.1120                 6.9480
 Frc consts  --      0.8870                 1.8047                 1.8615
 IR Inten    --      5.6142                 9.0920                 9.7349

                     34                     35                     36
                      A                      A                      A
 Frequencies --    734.7583               741.8048               764.4368
 Red. masses --      5.7129                 4.5905                 6.3312
 Frc consts  --      1.8172                 1.4883                 2.1798
 IR Inten    --      3.2329                 0.8691                21.1276

                     37                     38                     39
                      A                      A                      A
 Frequencies --    769.8277               780.1880               784.6660
 Red. masses --      4.4390                 2.8829                 6.3421
 Frc consts  --      1.5500                 1.0339                 2.3007
 IR Inten    --      0.8861                24.5621                18.0938

                     40                     41                     42
                      A                      A                      A
 Frequencies --    788.9663               841.4331               856.8191
 Red. masses --      1.3244                 1.9577                 2.2373
 Frc consts  --      0.4857                 0.8166                 0.9677
 IR Inten    --     79.7471                 8.0516                19.9669

                     43                     44                     45
                      A                      A                      A
 Frequencies --    863.2644               866.8452               910.1204
 Red. masses --      1.6916                 1.4079                 1.5098
 Frc consts  --      0.7428                 0.6233                 0.7368
 IR Inten    --     11.0564                25.6483                11.2584

                     46                     47                     48
                      A                      A                      A
 Frequencies --    918.5263               979.5671               988.7472
 Red. masses --      5.3624                 1.3427                 1.3057
 Frc consts  --      2.6656                 0.7591                 0.7521
 IR Inten    --     42.8487                 2.8465                 0.6664

                     49                     50                     51
                      A                      A                      A
 Frequencies --    997.1065               998.7438              1018.4702
 Red. masses --      1.3748                 1.3358                 5.3899
 Frc consts  --      0.8054                 0.7851                 3.2940
 IR Inten    --      0.1491                 2.3498                40.4749

                     52                     53                     54
                      A                      A                      A
 Frequencies --   1019.1704              1025.9334              1051.1563
 Red. masses --      1.3320                 1.3682                 3.5518
 Frc consts  --      0.8152                 0.8485                 2.3123
 IR Inten    --      2.8480                 1.0969                 4.4360

                     55                     56                     57
                      A                      A                      A
 Frequencies --   1084.6952              1095.1126              1102.6427
 Red. masses --      6.4630                 2.1822                 2.5568
 Frc consts  --      4.4802                 1.5419                 1.8315
 IR Inten    --     69.8077                11.1433                 5.7111

                     58                     59                     60
                      A                      A                      A
 Frequencies --   1132.9799              1137.3101              1146.2225
 Red. masses --      2.8319                 1.3429                 1.6424
 Frc consts  --      2.1417                 1.0234                 1.2713
 IR Inten    --     72.7295                 5.7621                 8.7443

                     61                     62                     63
                      A                      A                      A
 Frequencies --   1160.2510              1189.0408              1194.9116
 Red. masses --      1.4287                 1.5331                 1.4073
 Frc consts  --      1.1332                 1.2770                 1.1839
 IR Inten    --      8.2169                18.7183                18.3973

                     64                     65                     66
                      A                      A                      A
 Frequencies --   1209.8261              1259.4365              1270.6657
 Red. masses --      1.1228                 2.3823                 2.0193
 Frc consts  --      0.9683                 2.2263                 1.9209
 IR Inten    --      0.3545                 3.4670                15.6918

                     67                     68                     69
                      A                      A                      A
 Frequencies --   1304.5407              1307.5013              1316.3870
 Red. masses --      4.6430                 4.1009                 2.1346
 Frc consts  --      4.6555                 4.1306                 2.1794
 IR Inten    --     15.1876                 8.4056                 7.1011

                     70                     71                     72
                      A                      A                      A
 Frequencies --   1323.9657              1331.9741              1335.9633
 Red. masses --      2.8847                 1.6355                 2.3075
 Frc consts  --      2.9792                 1.7096                 2.4265
 IR Inten    --      8.0430                10.7252                 5.1161

                     73                     74                     75
                      A                      A                      A
 Frequencies --   1359.6372              1449.9490              1465.5261
 Red. masses --      2.8467                 2.9829                 2.6728
 Frc consts  --      3.1006                 3.6948                 3.3823
 IR Inten    --    260.1540                 9.6089               158.8174

                     76                     77                     78
                      A                      A                      A
 Frequencies --   1499.9174              1506.7886              1526.9703
 Red. masses --      2.3357                 2.6663                 2.5621
 Frc consts  --      3.0961                 3.5667                 3.5198
 IR Inten    --     71.1285               115.6710                67.8568

                     79                     80                     81
                      A                      A                      A
 Frequencies --   1556.3785              1595.0797              1648.2720
 Red. masses --      2.7823                 2.3211                 5.9245
 Frc consts  --      3.9709                 3.4795                 9.4832
 IR Inten    --     68.8203               677.2206                38.1744

                     82                     83                     84
                      A                      A                      A
 Frequencies --   1652.7284              1673.7841              1678.9429
 Red. masses --      6.9755                 5.6254                 7.2745
 Frc consts  --     11.2261                 9.2854                12.0817
 IR Inten    --     14.7095               138.2986                64.4886

                     85                     86                     87
                      A                      A                      A
 Frequencies --   1685.0646              1696.7638              1810.3262
 Red. masses --      6.2837                 5.8350                 9.8258
 Frc consts  --     10.5124                 9.8977                18.9728
 IR Inten    --     12.4993                 4.6726               371.0831

                     88                     89                     90
                      A                      A                      A
 Frequencies --   3224.1175              3227.3483              3232.3365
 Red. masses --      1.0881                 1.0903                 1.0901
 Frc consts  --      6.6640                 6.6911                 6.7103
 IR Inten    --      2.7986                 3.5947                 3.8214

                     91                     92                     93
                      A                      A                      A
 Frequencies --   3232.6077              3233.7794              3250.1595
 Red. masses --      1.0909                 1.0907                 1.0974
 Frc consts  --      6.7166                 6.7201                 6.8300
 IR Inten    --     14.8764                10.1195                21.0609

                     94                     95                     96
                      A                      A                      A
 Frequencies --   3251.0163              3255.1244              3255.9559
 Red. masses --      1.0910                 1.0944                 1.0951
 Frc consts  --      6.7936                 6.8325                 6.8400
 IR Inten    --      0.3682                 1.1174                 0.4269

                     97                     98                     99
                      A                      A                      A
 Frequencies --   3268.6330              3317.0668              3613.1989
 Red. masses --      1.0976                 1.0921                 1.0776
 Frc consts  --      6.9091                 7.0801                 8.2888
 IR Inten    --      5.9232                 7.7537               106.9674

 - Thermochemistry -
 -------------------
 Temperature   298.150 Kelvin.  Pressure   1.00000 Atm.
 Atom     1 has atomic number  6 and mass  12.00000

 Molecular mass:   342.03267 amu.
 Principal axes and moments of inertia in atomic units:
                           1         2         3
     Eigenvalues --  7617.344789694.96494**********
           X            0.99722  -0.07418  -0.00730
           Y            0.07421   0.99724   0.00320
           Z            0.00705  -0.00373   0.99997
 This molecule is an asymmetric top.
 Rotational symmetry number  1.
 Warning -- assumption of classical behavior for rotation
           may cause significant error
 Rotational temperatures (Kelvin)      0.01137     0.00893     0.00555
 Rotational constants (GHZ):           0.23693     0.18615     0.11559
 Zero-point vibrational energy     687770.6 (Joules/Mol)
                                  164.38113 (Kcal/Mol)
 Warning -- explicit consideration of  29 degrees of freedom as
           vibrations may cause significant error
 Vibrational temperatures:     15.54    41.73    54.54    80.56    99.54
          (Kelvin)            118.76   129.57   187.04   201.69   267.06
                              282.32   338.73   365.27   385.00   424.65
                              481.35   487.96   517.47   606.73   612.76
                              624.24   648.46   693.45   716.75   728.77
                              775.37   799.30   821.85   872.23   913.67
                              928.80   944.24   970.23  1057.15  1067.29
                             1099.85  1107.61  1122.52  1128.96  1135.15
                             1210.63  1232.77  1242.04  1247.20  1309.46
                             1321.55  1409.38  1422.59  1434.61  1436.97
                             1465.35  1466.36  1476.09  1512.38  1560.63
                             1575.62  1586.46  1630.11  1636.34  1649.16
                             1669.34  1710.76  1719.21  1740.67  1812.05
                             1828.20  1876.94  1881.20  1893.99  1904.89
                             1916.41  1922.15  1956.21  2086.15  2108.57
                             2158.05  2167.93  2196.97  2239.28  2294.96
                             2371.50  2377.91  2408.20  2415.62  2424.43
                             2441.26  2604.66  4638.79  4643.43  4650.61
                             4651.00  4652.69  4676.25  4677.49  4683.40
                             4684.59  4702.83  4772.52  5198.59

 Zero-point correction=                           0.261958 (Hartree/Particle)
 Thermal correction to Energy=                    0.280726
 Thermal correction to Enthalpy=                  0.281670
 Thermal correction to Gibbs Free Energy=         0.211528
 Sum of electronic and zero-point Energies=          -1797.611011
 Sum of electronic and thermal Energies=             -1797.592242
 Sum of electronic and thermal Enthalpies=           -1797.591298
 Sum of electronic and thermal Free Energies=        -1797.661440

                     E (Thermal)             CV                S
                      KCal/Mol        Cal/Mol-Kelvin    Cal/Mol-Kelvin
 Total                  176.158             72.112            147.626
 Electronic               0.000              0.000              0.000
 Translational            0.889              2.981             43.384
 Rotational               0.889              2.981             35.399
 Vibrational            174.381             66.150             68.844
 Vibration     1          0.593              1.987              7.858
 Vibration     2          0.593              1.984              5.896
 Vibration     3          0.594              1.982              5.366
 Vibration     4          0.596              1.975              4.594
 Vibration     5          0.598              1.969              4.177
 Vibration     6          0.600              1.961              3.829
 Vibration     7          0.602              1.956              3.659
 Vibration     8          0.612              1.923              2.946
 Vibration     9          0.615              1.913              2.801
 Vibration    10          0.632              1.860              2.271
 Vibration    11          0.636              1.845              2.168
 Vibration    12          0.655              1.787              1.837
 Vibration    13          0.665              1.756              1.704
 Vibration    14          0.673              1.733              1.612
 Vibration    15          0.689              1.683              1.444
 Vibration    16          0.716              1.606              1.238
 Vibration    17          0.719              1.597              1.216
 Vibration    18          0.734              1.555              1.124
 Vibration    19          0.784              1.423              0.886
 Vibration    20          0.788              1.414              0.872
 Vibration    21          0.795              1.396              0.846
 Vibration    22          0.809              1.359              0.794
 Vibration    23          0.838              1.290              0.705
 Vibration    24          0.854              1.254              0.663
 Vibration    25          0.862              1.236              0.642
 Vibration    26          0.894              1.164              0.568
 Vibration    27          0.911              1.128              0.533
 Vibration    28          0.927              1.094              0.502
 Vibration    29          0.965              1.019              0.439

 Optimization completed.
    -- Stationary point found.
 Normal termination of Gaussian 16 at Thu Dec 14 18:09:30 2023.
