 Gaussian 16, Revision C.01,
 Gaussian 16:  ES64L-G16RevC.01  3-Jul-2019

 ----------------------------------------------------------------------
 # m062x 6-31g(d) scrf=(iefpcm,solvent=benzene) opt=(maxcycles=50,maxst
 ep=10) freq=noraman
 ----------------------------------------------------------------------

 ------------
 Structure193
 ------------
 Symbolic Z-matrix:
 Charge =  0 Multiplicity = 1

 SCF Done:  E(RM062X) =  -1797.86679223     A.U. after   14 cycles
 SCF Done:  E(RM062X) =  -1797.87074674     A.U. after   12 cycles
 SCF Done:  E(RM062X) =  -1797.86580214     A.U. after   13 cycles
 SCF Done:  E(RM062X) =  -1797.87250635     A.U. after   12 cycles
 SCF Done:  E(RM062X) =  -1797.87276981     A.U. after   11 cycles
 SCF Done:  E(RM062X) =  -1797.87289328     A.U. after   11 cycles
 SCF Done:  E(RM062X) =  -1797.87293679     A.U. after   11 cycles
 SCF Done:  E(RM062X) =  -1797.87295623     A.U. after   10 cycles
 SCF Done:  E(RM062X) =  -1797.87296655     A.U. after   10 cycles
 SCF Done:  E(RM062X) =  -1797.87296831     A.U. after    9 cycles
 SCF Done:  E(RM062X) =  -1797.87296841     A.U. after    8 cycles
 SCF Done:  E(RM062X) =  -1797.87296857     A.U. after    8 cycles
 SCF Done:  E(RM062X) =  -1797.87296858     A.U. after    7 cycles
 SCF Done:  E(RM062X) =  -1797.87296858     A.U. after    7 cycles
 SCF Done:  E(RM062X) =  -1797.87296856     A.U. after    7 cycles
 Optimization completed.
    -- Stationary point found.
 Normal termination of Gaussian 16 at Mon Dec 11 12:59:53 2023.

 --------------------------------------------------------------------
 #N Geom=AllCheck Guess=TCheck SCRF=Check GenChk RM062X/6-31G(d) Freq
 --------------------------------------------------------------------

 Structure from the checkpoint file:  "boscalid_OPLS3e_1_opt_freq.chk"
 ------------
 Structure193
 ------------
 Charge =  0 Multiplicity = 1

                         Standard orientation:
 ---------------------------------------------------------------------
 Center     Atomic      Atomic             Coordinates (Angstroms)
 Number     Number       Type             X           Y           Z
 ---------------------------------------------------------------------
      1          6           0       -2.027603    0.605590   -0.094853
      2          6           0       -2.789955    0.203886   -1.197532
      3          6           0       -3.337898   -1.072361   -1.262548
      4          6           0       -3.115461   -1.958235   -0.212979
      5          6           0       -2.365152   -1.587595    0.896709
      6          6           0       -1.830590   -0.303892    0.950745
      7          1           0       -2.948674    0.899509   -2.016356
      8          1           0       -3.926353   -1.382407   -2.119122
      9         17           0       -3.794546   -3.563980   -0.289409
     10          1           0       -2.207884   -2.289482    1.708391
     11          1           0       -1.264165    0.002931    1.826071
     12          6           0       -0.546786    4.614240    0.155785
     13          6           0       -1.910318    4.378105    0.022749
     14          6           0       -2.362165    3.066109   -0.064105
     15          6           0       -1.478075    1.987056   -0.021620
     16          6           0       -0.093545    2.241639    0.085275
     17          6           0        0.362331    3.561507    0.184437
     18          1           0       -0.173787    5.630498    0.235418
     19          1           0       -2.615778    5.201819   -0.003687
     20          1           0       -3.424952    2.856682   -0.147531
     21          7           0        0.785617    1.136943    0.055564
     22          1           0        1.420852    3.753817    0.270679
     23          1           0        0.340107    0.228900   -0.005228
     24          6           0        2.145968    1.154806   -0.039967
     25          8           0        2.831566    2.163278   -0.065274
     26          6           0        4.166589   -2.531172   -0.666897
     27          6           0        4.541721   -1.403991   -1.389181
     28          6           0        3.859034   -0.221031   -1.147816
     29          6           0        2.814239   -0.188247   -0.221549
     30          6           0        2.559334   -1.384604    0.459113
     31          7           0        3.200428   -2.517146    0.253997
     32          1           0        4.663198   -3.485662   -0.816557
     33          1           0        5.346942   -1.453303   -2.112578
     34          1           0        4.116399    0.698570   -1.663226
     35         17           0        1.357443   -1.452345    1.735549
 ---------------------------------------------------------------------

 SCF Done:  E(RM062X) =  -1797.87296856     A.U. after    1 cycles

 The electronic state is 1-A.
 Alpha  occ. eigenvalues -- -102.68102-102.67297 -19.63054 -14.81276 -14.78672
 Alpha  occ. eigenvalues --  -10.68095 -10.66750 -10.62306 -10.61025 -10.60980
 Alpha  occ. eigenvalues --  -10.59694 -10.59159 -10.57812 -10.57754 -10.57287
 Alpha  occ. eigenvalues --  -10.57271 -10.57138 -10.57126 -10.57085 -10.55899
 Alpha  occ. eigenvalues --  -10.55544 -10.55212 -10.55073  -9.82882  -9.82052
 Alpha  occ. eigenvalues --   -7.55268  -7.54630  -7.54590  -7.54449  -7.53794
 Alpha  occ. eigenvalues --   -7.53776  -1.18240  -1.09528  -1.06573  -1.00491
 Alpha  occ. eigenvalues --   -0.97229  -0.96551  -0.94330  -0.93363  -0.87519
 Alpha  occ. eigenvalues --   -0.86975  -0.86303  -0.84536  -0.81510  -0.76488
 Alpha  occ. eigenvalues --   -0.72832  -0.72418  -0.71351  -0.70889  -0.67417
 Alpha  occ. eigenvalues --   -0.66373  -0.63636  -0.61583  -0.59483  -0.59332
 Alpha  occ. eigenvalues --   -0.57290  -0.55731  -0.55090  -0.53738  -0.53066
 Alpha  occ. eigenvalues --   -0.52755  -0.51876  -0.51007  -0.50540  -0.50298
 Alpha  occ. eigenvalues --   -0.49966  -0.49153  -0.48877  -0.47527  -0.45726
 Alpha  occ. eigenvalues --   -0.44671  -0.44640  -0.43173  -0.42441  -0.41814
 Alpha  occ. eigenvalues --   -0.40498  -0.40124  -0.39564  -0.38082  -0.37853
 Alpha  occ. eigenvalues --   -0.36959  -0.35862  -0.33734  -0.32801  -0.32206
 Alpha  occ. eigenvalues --   -0.31951  -0.29523  -0.27449
 Alpha virt. eigenvalues --   -0.02442  -0.00512   0.00044   0.01176   0.02860
 Alpha virt. eigenvalues --    0.04004   0.06640   0.07540   0.09074   0.14220
 Alpha virt. eigenvalues --    0.14750   0.15518   0.16633   0.17881   0.18002

 Mulliken charges:
               1
     1  C   -0.011451
     2  C   -0.171160
     3  C   -0.160633
     4  C   -0.111706
     5  C   -0.149081
     6  C   -0.197238
     7  H    0.190562
     8  H    0.202643
     9  Cl  -0.003650
    10  H    0.205306
    11  H    0.197396
    12  C   -0.181157
    13  C   -0.167495
    14  C   -0.199815
    15  C    0.007272
    16  C    0.295366
    17  C   -0.185925
    18  H    0.178114
    19  H    0.175758
    20  H    0.177628
    21  N   -0.762168
    22  H    0.222994
    23  H    0.376931
    24  C    0.602333
    25  O   -0.522116
    26  C    0.029096
    27  C   -0.182592
    28  C   -0.132619
    29  C    0.015180
    30  C    0.052431
    31  N   -0.437847
    32  H    0.203346
    33  H    0.203818
    34  H    0.222151
    35  Cl   0.018325
 Sum of Mulliken charges =  -0.00000

 Dipole moment (field-independent basis, Debye):
    X=              0.2726    Y=              0.6181    Z=             -2.7530  Tot=              2.8347
 Quadrupole moment (field-independent basis, Debye-Ang):
   XX=           -133.3816   YY=           -147.7591   ZZ=           -140.1031
   XY=            -15.4343   XZ=             -8.1417   YZ=              2.7925

  Exact polarizability:     264.194       1.917     322.858     -11.799      -6.324     156.188
 Approx polarizability:     278.421      10.598     343.412      -9.709     -14.320     200.805

                      1                      2                      3
                      A                      A                      A
 Frequencies --     10.8757                29.0216                37.9221
 Red. masses --     10.3699                 9.6272                 8.0481
 Frc consts  --      0.0007                 0.0048                 0.0068
 IR Inten    --      0.8569                 0.1416                 3.2247

                      4                      5                      6
                      A                      A                      A
 Frequencies --     56.0206                69.1937                82.5524
 Red. masses --      4.8083                 6.8001                 5.0473
 Frc consts  --      0.0089                 0.0192                 0.0203
 IR Inten    --      0.3356                 1.2514                 0.0779

                      7                      8                      9
                      A                      A                      A
 Frequencies --     90.0893               130.0302               140.1865
 Red. masses --      6.3396                 6.4861                 8.4679
 Frc consts  --      0.0303                 0.0646                 0.0980
 IR Inten    --      4.4902                 1.6425                 0.8029

                     10                     11                     12
                      A                      A                      A
 Frequencies --    185.6337               196.2311               235.4371
 Red. masses --      6.8596                 5.9631                 7.4272
 Frc consts  --      0.1393                 0.1353                 0.2426
 IR Inten    --      1.3081                 0.7707                 0.4136

                     13                     14                     15
                      A                      A                      A
 Frequencies --    253.8799               267.5914               295.1473
 Red. masses --      9.2697                 6.3545                 6.3997
 Frc consts  --      0.3520                 0.2681                 0.3285
 IR Inten    --      3.4161                 0.7381                 1.7323

                     16                     17                     18
                      A                      A                      A
 Frequencies --    334.5582               339.1583               359.6620
 Red. masses --      6.4861                 8.2534                 4.3997
 Frc consts  --      0.4277                 0.5594                 0.3353
 IR Inten    --      6.4645                 6.0489                 2.3584

                     19                     20                     21
                      A                      A                      A
 Frequencies --    421.7052               425.9063               433.8715
 Red. masses --      3.4364                 4.4993                 6.5002
 Frc consts  --      0.3601                 0.4809                 0.7209
 IR Inten    --      0.8080                 6.0862                 4.3986

                     22                     23                     24
                      A                      A                      A
 Frequencies --    450.7099               481.9674               498.1729
 Red. masses --      7.5104                 8.6756                 4.2301
 Frc consts  --      0.8989                 1.1874                 0.6185
 IR Inten    --     24.8012                11.3165                 8.2770

                     25                     26                     27
                      A                      A                      A
 Frequencies --    506.5160               538.9084               555.5370
 Red. masses --      3.7270                 5.5911                 3.4597
 Frc consts  --      0.5634                 0.9567                 0.6291
 IR Inten    --      4.3667                 8.1957                11.3832

                     28                     29                     30
                      A                      A                      A
 Frequencies --    571.2133               606.2286               635.1326
 Red. masses --      3.4430                 6.0082                 1.4684
 Frc consts  --      0.6619                 1.3010                 0.3490
 IR Inten    --      5.0503                 2.6384                47.6148

                     31                     32                     33
                      A                      A                      A
 Frequencies --    645.5739               656.2787               674.3433
 Red. masses --      3.5794                 7.1047                 6.9479
 Frc consts  --      0.8789                 1.8029                 1.8615
 IR Inten    --      5.7694                 9.1260                 9.7412

                     34                     35                     36
                      A                      A                      A
 Frequencies --    734.7573               741.8041               764.4375
 Red. masses --      5.7126                 4.5893                 6.3298
 Frc consts  --      1.8171                 1.4879                 2.1793
 IR Inten    --      3.2339                 0.8712                21.1333

                     37                     38                     39
                      A                      A                      A
 Frequencies --    769.8285               780.1851               784.6653
 Red. masses --      4.4390                 2.8820                 6.3445
 Frc consts  --      1.5500                 1.0336                 2.3015
 IR Inten    --      0.8872                24.5392                18.1258

                     40                     41                     42
                      A                      A                      A
 Frequencies --    788.9591               841.4323               856.8136
 Red. masses --      1.3244                 1.9575                 2.2361
 Frc consts  --      0.4857                 0.8166                 0.9672
 IR Inten    --     79.7371                 8.0550                19.9683

                     43                     44                     45
                      A                      A                      A
 Frequencies --    863.2533               866.8469               910.1189
 Red. masses --      1.6923                 1.4081                 1.5096
 Frc consts  --      0.7430                 0.6234                 0.7367
 IR Inten    --     11.0270                25.6713                11.2455

                     46                     47                     48
                      A                      A                      A
 Frequencies --    918.5306               979.5619               988.7446
 Red. masses --      5.3650                 1.3428                 1.3057
 Frc consts  --      2.6669                 0.7591                 0.7521
 IR Inten    --     42.8585                 2.8466                 0.6656

                     49                     50                     51
                      A                      A                      A
 Frequencies --    997.1061               998.7464              1018.4693
 Red. masses --      1.3749                 1.3358                 5.3866
 Frc consts  --      0.8054                 0.7851                 3.2920
 IR Inten    --      0.1492                 2.3524                40.4710

                     52                     53                     54
                      A                      A                      A
 Frequencies --   1019.1662              1025.9318              1051.1540
 Red. masses --      1.3322                 1.3682                 3.5519
 Frc consts  --      0.8153                 0.8485                 2.3123
 IR Inten    --      2.8571                 1.0975                 4.4376

                     55                     56                     57
                      A                      A                      A
 Frequencies --   1084.6940              1095.1137              1102.6246
 Red. masses --      6.4634                 2.1830                 2.5557
 Frc consts  --      4.4805                 1.5425                 1.8307
 IR Inten    --     69.8062                11.1403                 5.7168

                     58                     59                     60
                      A                      A                      A
 Frequencies --   1132.9718              1137.3094              1146.2206
 Red. masses --      2.8316                 1.3429                 1.6424
 Frc consts  --      2.1415                 1.0234                 1.2714
 IR Inten    --     72.7217                 5.7593                 8.7547

                     61                     62                     63
                      A                      A                      A
 Frequencies --   1160.2515              1189.0303              1194.9049
 Red. masses --      1.4287                 1.5347                 1.4059
 Frc consts  --      1.1332                 1.2784                 1.1827
 IR Inten    --      8.2134                18.7710                18.3446

                     64                     65                     66
                      A                      A                      A
 Frequencies --   1209.8283              1259.4375              1270.6679
 Red. masses --      1.1229                 2.3818                 2.0194
 Frc consts  --      0.9683                 2.2259                 1.9210
 IR Inten    --      0.3540                 3.4677                15.6800

                     67                     68                     69
                      A                      A                      A
 Frequencies --   1304.5239              1307.4834              1316.3860
 Red. masses --      4.6509                 4.0960                 2.1351
 Frc consts  --      4.6633                 4.1255                 2.1799
 IR Inten    --     15.1741                 8.4319                 7.1263

                     70                     71                     72
                      A                      A                      A
 Frequencies --   1323.9694              1331.9717              1335.9742
 Red. masses --      2.8858                 1.6347                 2.3082
 Frc consts  --      2.9803                 1.7088                 2.4272
 IR Inten    --      8.0326                10.7005                 5.1308

                     73                     74                     75
                      A                      A                      A
 Frequencies --   1359.6281              1449.9462              1465.5208
 Red. masses --      2.8468                 2.9829                 2.6720
 Frc consts  --      3.1007                 3.6948                 3.3812
 IR Inten    --    260.2663                 9.6115               158.8186

                     76                     77                     78
                      A                      A                      A
 Frequencies --   1499.9110              1506.7864              1526.9688
 Red. masses --      2.3360                 2.6664                 2.5620
 Frc consts  --      3.0964                 3.5668                 3.5196
 IR Inten    --     71.0443               115.7523                67.8661

                     79                     80                     81
                      A                      A                      A
 Frequencies --   1556.3806              1595.0865              1648.2352
 Red. masses --      2.7824                 2.3209                 5.9249
 Frc consts  --      3.9710                 3.4792                 9.4835
 IR Inten    --     68.8174               677.1502                38.2129

                     82                     83                     84
                      A                      A                      A
 Frequencies --   1652.7285              1673.7820              1678.9404
 Red. masses --      6.9758                 5.6251                 7.2733
 Frc consts  --     11.2266                 9.2849                12.0796
 IR Inten    --     14.7007               138.3057                64.4364

                     85                     86                     87
                      A                      A                      A
 Frequencies --   1685.0612              1696.7633              1810.3616
 Red. masses --      6.2837                 5.8349                 9.8258
 Frc consts  --     10.5122                 9.8975                18.9736
 IR Inten    --     12.5024                 4.6727               371.0864

                     88                     89                     90
                      A                      A                      A
 Frequencies --   3224.1315              3227.3515              3232.3409
 Red. masses --      1.0881                 1.0903                 1.0901
 Frc consts  --      6.6641                 6.6911                 6.7103
 IR Inten    --      2.8002                 3.5953                 3.8192

                     91                     92                     93
                      A                      A                      A
 Frequencies --   3232.6144              3233.7896              3250.1798
 Red. masses --      1.0909                 1.0907                 1.0974
 Frc consts  --      6.7166                 6.7201                 6.8300
 IR Inten    --     14.8816                10.1248                21.0569

                     94                     95                     96
                      A                      A                      A
 Frequencies --   3251.0386              3255.1586              3255.9890
 Red. masses --      1.0910                 1.0944                 1.0951
 Frc consts  --      6.7936                 6.8326                 6.8401
 IR Inten    --      0.3673                 1.1160                 0.4271

                     97                     98                     99
                      A                      A                      A
 Frequencies --   3268.6565              3317.0548              3613.2665
 Red. masses --      1.0976                 1.0921                 1.0776
 Frc consts  --      6.9092                 7.0800                 8.2891
 IR Inten    --      5.9212                 7.7571               106.9371

 - Thermochemistry -
 -------------------
 Temperature   298.150 Kelvin.  Pressure   1.00000 Atm.
 Atom     1 has atomic number  6 and mass  12.00000

 Molecular mass:   342.03267 amu.
 Principal axes and moments of inertia in atomic units:
                           1         2         3
     Eigenvalues --  7617.050569695.01542**********
           X            0.99722  -0.07417  -0.00730
           Y            0.07419   0.99724   0.00320
           Z            0.00704  -0.00373   0.99997
 This molecule is an asymmetric top.
 Rotational symmetry number  1.
 Warning -- assumption of classical behavior for rotation
           may cause significant error
 Rotational temperatures (Kelvin)      0.01137     0.00893     0.00555
 Rotational constants (GHZ):           0.23693     0.18615     0.11559
 Zero-point vibrational energy     687773.8 (Joules/Mol)
                                  164.38189 (Kcal/Mol)
 Warning -- explicit consideration of  29 degrees of freedom as
           vibrations may cause significant error
 Vibrational temperatures:     15.65    41.76    54.56    80.60    99.55
          (Kelvin)            118.77   129.62   187.08   201.70   267.09
                              282.33   338.74   365.28   385.00   424.65
                              481.35   487.97   517.47   606.74   612.78
                              624.24   648.47   693.44   716.76   728.76
                              775.37   799.29   821.85   872.23   913.81
                              928.84   944.24   970.23  1057.15  1067.29
                             1099.86  1107.61  1122.51  1128.96  1135.14
                             1210.63  1232.76  1242.03  1247.20  1309.46
                             1321.56  1409.37  1422.58  1434.61  1436.97
                             1465.35  1466.35  1476.09  1512.38  1560.63
                             1575.62  1586.43  1630.09  1636.33  1649.16
                             1669.34  1710.75  1719.20  1740.67  1812.05
                             1828.21  1876.92  1881.18  1893.99  1904.90
                             1916.41  1922.17  1956.20  2086.15  2108.56
                             2158.04  2167.93  2196.97  2239.28  2294.97
                             2371.44  2377.91  2408.20  2415.62  2424.43
                             2441.26  2604.71  4638.81  4643.44  4650.62
                             4651.01  4652.70  4676.28  4677.52  4683.45
                             4684.64  4702.87  4772.50  5198.68

 Zero-point correction=                           0.261959 (Hartree/Particle)
 Thermal correction to Energy=                    0.280727
 Thermal correction to Enthalpy=                  0.281671
 Thermal correction to Gibbs Free Energy=         0.211538
 Sum of electronic and zero-point Energies=          -1797.611009
 Sum of electronic and thermal Energies=             -1797.592242
 Sum of electronic and thermal Enthalpies=           -1797.591298
 Sum of electronic and thermal Free Energies=        -1797.661431

                     E (Thermal)             CV                S
                      KCal/Mol        Cal/Mol-Kelvin    Cal/Mol-Kelvin
 Total                  176.159             72.111            147.608
 Electronic               0.000              0.000              0.000
 Translational            0.889              2.981             43.384
 Rotational               0.889              2.981             35.399
 Vibrational            174.381             66.150             68.825
 Vibration     1          0.593              1.987              7.844
 Vibration     2          0.593              1.984              5.895
 Vibration     3          0.594              1.982              5.365
 Vibration     4          0.596              1.975              4.593
 Vibration     5          0.598              1.969              4.176
 Vibration     6          0.600              1.961              3.829
 Vibration     7          0.602              1.956              3.658
 Vibration     8          0.612              1.923              2.946
 Vibration     9          0.615              1.913              2.801
 Vibration    10          0.632              1.859              2.271
 Vibration    11          0.636              1.845              2.168
 Vibration    12          0.655              1.787              1.837
 Vibration    13          0.665              1.756              1.703
 Vibration    14          0.673              1.733              1.612
 Vibration    15          0.689              1.683              1.444
 Vibration    16          0.716              1.606              1.238
 Vibration    17          0.719              1.597              1.216
 Vibration    18          0.734              1.555              1.124
 Vibration    19          0.784              1.423              0.886
 Vibration    20          0.788              1.414              0.872
 Vibration    21          0.795              1.396              0.846
 Vibration    22          0.809              1.359              0.794
 Vibration    23          0.838              1.290              0.705
 Vibration    24          0.854              1.254              0.663
 Vibration    25          0.862              1.236              0.642
 Vibration    26          0.894              1.164              0.568
 Vibration    27          0.911              1.128              0.533
 Vibration    28          0.927              1.094              0.502
 Vibration    29          0.965              1.019              0.439

 Optimization completed.
    -- Stationary point found.
 Normal termination of Gaussian 16 at Mon Dec 11 13:06:50 2023.
