 Gaussian 16, Revision C.01,
 Gaussian 16:  ES64L-G16RevC.01  3-Jul-2019

 ----------------------------------------------------------------------
 # m062x chkbasis guess=read geom=allchk scrf=(iefpcm,solvent=benzene)
 opt=(maxcycles=50,maxstep=10) freq=noraman
 ----------------------------------------------------------------------

 Structure from the checkpoint file:  "cinchonidine_OPLS3e_1000_1_opt_hess.chk"
 -------------
 Molecule Name
 -------------
 Charge =  1 Multiplicity = 1

 SCF Done:  E(RM062X) =  -883.941609327     A.U. after    1 cycles
 SCF Done:  E(RM062X) =  -883.941475638     A.U. after   12 cycles
 SCF Done:  E(RM062X) =  -883.941632726     A.U. after   11 cycles
 SCF Done:  E(RM062X) =  -883.942000601     A.U. after   11 cycles
 SCF Done:  E(RM062X) =  -883.942055140     A.U. after   10 cycles
 SCF Done:  E(RM062X) =  -883.942076651     A.U. after    9 cycles
 SCF Done:  E(RM062X) =  -883.942121577     A.U. after   10 cycles
 SCF Done:  E(RM062X) =  -883.942166656     A.U. after    9 cycles
 SCF Done:  E(RM062X) =  -883.942146221     A.U. after   10 cycles
 SCF Done:  E(RM062X) =  -883.942201718     A.U. after   10 cycles
 SCF Done:  E(RM062X) =  -883.942232480     A.U. after   10 cycles
 SCF Done:  E(RM062X) =  -883.942235464     A.U. after    9 cycles
 SCF Done:  E(RM062X) =  -883.942232628     A.U. after    8 cycles
 SCF Done:  E(RM062X) =  -883.942237272     A.U. after    9 cycles
 SCF Done:  E(RM062X) =  -883.942237449     A.U. after    9 cycles
 SCF Done:  E(RM062X) =  -883.942237615     A.U. after    7 cycles
 SCF Done:  E(RM062X) =  -883.942237712     A.U. after    6 cycles
 SCF Done:  E(RM062X) =  -883.942237716     A.U. after    8 cycles
 SCF Done:  E(RM062X) =  -883.942237858     A.U. after    6 cycles
 Optimization completed.
    -- Stationary point found.
 Normal termination of Gaussian 16 at Fri Dec 15 10:08:48 2023.

 ------------------------------------------------------------------
 #N Geom=AllCheck Guess=TCheck SCRF=Check GenChk RM062X/ChkBas Freq
 ------------------------------------------------------------------

 Structure from the checkpoint file:  "cinchonidine_OPLS3e_1000_1_opt_hess.chk"
 -------------
 Molecule Name
 -------------
 Charge =  1 Multiplicity = 1

                         Standard orientation:
 ---------------------------------------------------------------------
 Center     Atomic      Atomic             Coordinates (Angstroms)
 Number     Number       Type             X           Y           Z
 ---------------------------------------------------------------------
      1          8           0       -0.726705   -2.181199   -1.283548
      2          6           0       -0.093773   -0.934421   -1.113236
      3          6           0       -1.048557   -0.019650   -0.335779
      4          1           0        0.109509   -0.478911   -2.095068
      5          6           0        1.205442   -1.033334   -0.331974
      6          1           0       -0.525518    0.928575   -0.179745
      7          6           0       -1.547807   -0.585550    1.002511
      8          7           0       -2.275555    0.364846   -1.148003
      9          6           0        2.170073    0.020074   -0.364167
     10          6           0        1.452390   -2.129349    0.452588
     11          6           0       -2.995860   -0.121436    1.228769
     12          1           0       -0.882514   -0.249110    1.800395
     13          1           0       -1.510693   -1.679154    0.979840
     14          6           0       -3.328026   -0.725080   -1.174650
     15          6           0       -2.868186    1.622352   -0.555258
     16          6           0        2.046442    1.199648   -1.147710
     17          6           0        3.332078   -0.139146    0.444044
     18          6           0        2.649900   -2.184486    1.211234
     19          1           0        0.743932   -2.949126    0.503207
     20          6           0       -3.901892   -0.876552    0.246077
     21          1           0       -3.299239   -0.333759    2.256902
     22          6           0       -3.134201    1.388803    0.953716
     23          1           0       -2.829308   -1.624801   -1.527603
     24          1           0       -4.074880   -0.408870   -1.904399
     25          1           0       -2.150295    2.427568   -0.731241
     26          1           0       -3.777852    1.831940   -1.121747
     27          6           0        3.018939    2.168112   -1.115241
     28          1           0        1.186146    1.342637   -1.795325
     29          6           0        4.319548    0.879259    0.456837
     30          7           0        3.553809   -1.238780    1.221523
     31          1           0        2.845418   -3.054512    1.834435
     32          1           0       -3.946041   -1.937534    0.502583
     33          1           0       -4.920623   -0.480879    0.292653
     34          1           0       -4.175990    1.663681    1.149021
     35          6           0       -2.240914    2.255689    1.840376
     36          6           0        4.165857    2.010063   -0.302452
     37          1           0        5.189665    0.721434    1.085090
     38          1           0       -2.428952    3.316618    1.654176
     39          1           0       -2.445612    2.057413    2.896036
     40          1           0       -1.175605    2.072262    1.665561
     41          1           0        4.924795    2.785117   -0.289647
     42          1           0       -0.124263   -2.774031   -1.760319
     43          1           0       -1.987196    0.560093   -2.111954
     44          1           0        2.912275    3.060519   -1.723219
 ---------------------------------------------------------------------

 SCF Done:  E(RM062X) =  -883.942237858     A.U. after    1 cycles

 The electronic state is 1-A.
 Alpha  occ. eigenvalues --  -19.72222 -14.95528 -14.80301 -10.69114 -10.68673
 Alpha  occ. eigenvalues --  -10.67642 -10.66843 -10.63222 -10.63175 -10.63072
 Alpha  occ. eigenvalues --  -10.62779 -10.62355 -10.61857 -10.61832 -10.61759
 Alpha  occ. eigenvalues --  -10.60881 -10.60812 -10.60286 -10.59789 -10.59462
 Alpha  occ. eigenvalues --  -10.59385  -1.23401  -1.19933  -1.10111  -1.00570
 Alpha  occ. eigenvalues --   -1.00270  -0.98643  -0.95584  -0.95015  -0.89441
 Alpha  occ. eigenvalues --   -0.88435  -0.86999  -0.85428  -0.81649  -0.79525
 Alpha  occ. eigenvalues --   -0.77073  -0.76429  -0.76096  -0.73050  -0.71499
 Alpha  occ. eigenvalues --   -0.68595  -0.67395  -0.65703  -0.64955  -0.64190
 Alpha  occ. eigenvalues --   -0.63778  -0.61813  -0.58893  -0.58053  -0.57411
 Alpha  occ. eigenvalues --   -0.56813  -0.56561  -0.55900  -0.55090  -0.54920
 Alpha  occ. eigenvalues --   -0.53825  -0.53448  -0.53227  -0.52810  -0.52511
 Alpha  occ. eigenvalues --   -0.51970  -0.50602  -0.49155  -0.48387  -0.46767
 Alpha  occ. eigenvalues --   -0.46554  -0.45357  -0.45097  -0.44441  -0.43995
 Alpha  occ. eigenvalues --   -0.43846  -0.42597  -0.40451  -0.36498  -0.34628
 Alpha  occ. eigenvalues --   -0.32836
 Alpha virt. eigenvalues --   -0.07067  -0.03062   0.00380   0.00924   0.05197
 Alpha virt. eigenvalues --    0.05836   0.06601   0.07318   0.08011   0.09441
 Alpha virt. eigenvalues --    0.09519   0.09891   0.10804   0.11021   0.11630

 Mulliken charges:
               1
     1  O   -0.660578
     2  C    0.058693
     3  C   -0.019847
     4  H    0.181639
     5  C    0.047470
     6  H    0.215642
     7  C   -0.330113
     8  N   -0.581117
     9  C    0.089160
    10  C   -0.241733
    11  C   -0.164210
    12  H    0.214583
    13  H    0.210181
    14  C   -0.210026
    15  C   -0.200219
    16  C   -0.209508
    17  C    0.203459
    18  C    0.033460
    19  H    0.195905
    20  C   -0.330865
    21  H    0.205699
    22  C   -0.149351
    23  H    0.265027
    24  H    0.227955
    25  H    0.229159
    26  H    0.232286
    27  C   -0.171375
    28  H    0.151787
    29  C   -0.156851
    30  N   -0.495538
    31  H    0.196849
    32  H    0.212744
    33  H    0.198884
    34  H    0.201499
    35  C   -0.502560
    36  C   -0.172850
    37  H    0.201298
    38  H    0.190612
    39  H    0.195602
    40  H    0.170714
    41  H    0.196700
    42  H    0.451988
    43  H    0.427909
    44  H    0.189836
 Sum of Mulliken charges =   1.00000

 Dipole moment (field-independent basis, Debye):
    X=             -9.7895    Y=              1.6781    Z=             -4.5602  Tot=             10.9291
 Quadrupole moment (field-independent basis, Debye-Ang):
   XX=            -88.5970   YY=           -102.0148   ZZ=           -109.1195
   XY=              0.4709   XZ=              2.3391   YZ=             -1.4048

  Exact polarizability:     239.535      28.470     234.430      23.931     -32.622     168.929
 Approx polarizability:     246.870      32.188     273.912      31.970     -45.499     201.957

                      1                      2                      3
                      A                      A                      A
 Frequencies --     29.5837                46.4837                52.3099
 Red. masses --      3.7966                 4.3722                 3.9760
 Frc consts  --      0.0020                 0.0056                 0.0064
 IR Inten    --      0.1141                 0.3227                 0.0559

                      4                      5                      6
                      A                      A                      A
 Frequencies --     67.1516               131.3349               164.6937
 Red. masses --      3.6588                 3.6931                 3.0962
 Frc consts  --      0.0097                 0.0375                 0.0495
 IR Inten    --      1.3568                 0.8152                 0.8301

                      7                      8                      9
                      A                      A                      A
 Frequencies --    184.3027               195.8379               232.2873
 Red. masses --      4.2021                 4.3432                 2.8403
 Frc consts  --      0.0841                 0.0981                 0.0903
 IR Inten    --      5.5785                 2.3043                 4.3553

                     10                     11                     12
                      A                      A                      A
 Frequencies --    239.3971               251.1155               264.9606
 Red. masses --      1.1725                 3.1302                 3.9742
 Frc consts  --      0.0396                 0.1163                 0.1644
 IR Inten    --      0.3143                 0.5522                 6.1407

                     13                     14                     15
                      A                      A                      A
 Frequencies --    287.9988               306.5111               345.9484
 Red. masses --      2.5792                 2.9689                 3.5759
 Frc consts  --      0.1260                 0.1643                 0.2521
 IR Inten    --      3.8491                12.0880                 1.7002

                     16                     17                     18
                      A                      A                      A
 Frequencies --    386.7043               404.4191               416.8036
 Red. masses --      2.0617                 1.3066                 2.2835
 Frc consts  --      0.1817                 0.1259                 0.2337
 IR Inten    --      6.3007               171.4150                 1.3513

                     19                     20                     21
                      A                      A                      A
 Frequencies --    421.5139               432.1941               462.4196
 Red. masses --      3.1093                 3.5823                 4.0465
 Frc consts  --      0.3255                 0.3942                 0.5098
 IR Inten    --      1.2289                 6.7242                 0.6108

                     22                     23                     24
                      A                      A                      A
 Frequencies --    480.9031               511.6257               527.1610
 Red. masses --      3.2111                 4.3003                 5.6099
 Frc consts  --      0.4375                 0.6632                 0.9185
 IR Inten    --      2.0876                 3.9371                 2.7366

                     25                     26                     27
                      A                      A                      A
 Frequencies --    544.9394               580.6650               599.1097
 Red. masses --      7.2403                 3.6000                 3.5748
 Frc consts  --      1.2668                 0.7152                 0.7560
 IR Inten    --      0.2405                 0.0845                 0.4201

                     28                     29                     30
                      A                      A                      A
 Frequencies --    626.7627               642.3230               658.1662
 Red. masses --      5.0008                 4.9368                 4.0189
 Frc consts  --      1.1574                 1.2001                 1.0257
 IR Inten    --      7.2194                 9.0748                 2.0888

                     31                     32                     33
                      A                      A                      A
 Frequencies --    702.5405               775.0619               779.9212
 Red. masses --      3.1598                 3.4256                 1.7435
 Frc consts  --      0.9189                 1.2124                 0.6248
 IR Inten    --      8.8402                 0.8302                32.3818

                     34                     35                     36
                      A                      A                      A
 Frequencies --    785.2574               801.5627               821.8868
 Red. masses --      2.7660                 3.1251                 2.5731
 Frc consts  --      1.0049                 1.1830                 1.0241
 IR Inten    --     12.5453                12.2815                27.1334

                     37                     38                     39
                      A                      A                      A
 Frequencies --    825.8172               842.9976               851.8102
 Red. masses --      5.4527                 2.3026                 1.7655
 Frc consts  --      2.1909                 0.9641                 0.7548
 IR Inten    --      2.6222                 0.5372                14.5615

                     40                     41                     42
                      A                      A                      A
 Frequencies --    876.7456               887.7135               894.4237
 Red. masses --      2.5309                 3.3249                 1.5640
 Frc consts  --      1.1462                 1.5437                 0.7372
 IR Inten    --      5.4157                 2.1032                 0.0980

                     43                     44                     45
                      A                      A                      A
 Frequencies --    916.2846               948.7374               950.8420
 Red. masses --      1.4516                 1.7971                 1.8742
 Frc consts  --      0.7181                 0.9531                 0.9984
 IR Inten    --     22.5011                 6.7760                 0.6835

                     46                     47                     48
                      A                      A                      A
 Frequencies --    971.8658               980.0100               990.9032
 Red. masses --      2.2114                 2.6378                 1.3410
 Frc consts  --      1.2306                 1.4926                 0.7758
 IR Inten    --     21.6041                 4.6520                 2.0606

                     49                     50                     51
                      A                      A                      A
 Frequencies --   1001.9106              1016.9070              1029.2810
 Red. masses --      2.0467                 1.4242                 2.4603
 Frc consts  --      1.2105                 0.8677                 1.5357
 IR Inten    --      8.6297                 0.9743                12.0254

                     52                     53                     54
                      A                      A                      A
 Frequencies --   1030.8161              1033.0163              1042.6730
 Red. masses --      1.3676                 1.9640                 2.7302
 Frc consts  --      0.8562                 1.2348                 1.7488
 IR Inten    --      0.6545                 2.2599                17.7258

                     55                     56                     57
                      A                      A                      A
 Frequencies --   1063.0618              1069.8221              1085.4679
 Red. masses --      2.1500                 1.9272                 2.1176
 Frc consts  --      1.4315                 1.2996                 1.4701
 IR Inten    --      3.7860                12.8892                 4.0038

                     58                     59                     60
                      A                      A                      A
 Frequencies --   1105.2849              1106.9415              1121.4184
 Red. masses --      2.0957                 2.0436                 2.1001
 Frc consts  --      1.5085                 1.4754                 1.5561
 IR Inten    --      0.4471                17.0264                11.2567

                     61                     62                     63
                      A                      A                      A
 Frequencies --   1167.6722              1171.6920              1173.1456
 Red. masses --      1.5254                 2.0731                 1.2539
 Frc consts  --      1.2254                 1.6769                 1.0168
 IR Inten    --      6.4856                25.5158                 4.5585

                     64                     65                     66
                      A                      A                      A
 Frequencies --   1184.5085              1195.3198              1220.0649
 Red. masses --      1.6666                 1.2230                 1.7778
 Frc consts  --      1.3777                 1.0296                 1.5592
 IR Inten    --     22.4207                 7.6288                33.4735

                     67                     68                     69
                      A                      A                      A
 Frequencies --   1230.3168              1250.3357              1250.6924
 Red. masses --      1.1822                 1.5169                 1.4944
 Frc consts  --      1.0543                 1.3972                 1.3773
 IR Inten    --      1.4761                36.2679                18.7972

                     70                     71                     72
                      A                      A                      A
 Frequencies --   1274.9148              1286.7438              1289.3848
 Red. masses --      1.7205                 1.7784                 1.1486
 Frc consts  --      1.6477                 1.7348                 1.1251
 IR Inten    --      2.1130                 8.4632                 1.8257

                     73                     74                     75
                      A                      A                      A
 Frequencies --   1302.2994              1305.1138              1326.9904
 Red. masses --      1.4200                 1.4682                 1.1364
 Frc consts  --      1.4189                 1.4734                 1.1790
 IR Inten    --      3.8964                26.7768                15.6239

                     76                     77                     78
                      A                      A                      A
 Frequencies --   1342.7996              1353.4882              1355.4731
 Red. masses --      1.3833                 1.4192                 1.8043
 Frc consts  --      1.4696                 1.5318                 1.9532
 IR Inten    --      4.8519                22.3092                29.2491

                     79                     80                     81
                      A                      A                      A
 Frequencies --   1365.4251              1377.2197              1383.4865
 Red. masses --      1.5146                 2.0402                 1.3314
 Frc consts  --      1.6637                 2.2800                 1.5014
 IR Inten    --      4.2848                27.1670                 4.3157

                     82                     83                     84
                      A                      A                      A
 Frequencies --   1388.6657              1401.2949              1418.8840
 Red. masses --      1.4828                 1.5101                 2.3145
 Frc consts  --      1.6847                 1.7471                 2.7454
 IR Inten    --      9.5754                10.1621                 7.2875

                     85                     86                     87
                      A                      A                      A
 Frequencies --   1425.1245              1435.1947              1442.5330
 Red. masses --      1.5980                 1.8174                 1.6020
 Frc consts  --      1.9122                 2.2055                 1.9641
 IR Inten    --      2.7893                 3.7958                 4.0013

                     88                     89                     90
                      A                      A                      A
 Frequencies --   1447.9688              1455.3352              1464.3519
 Red. masses --      1.8094                 1.2931                 1.3762
 Frc consts  --      2.2352                 1.6137                 1.7387
 IR Inten    --      0.5495                17.4168                15.8432

                     91                     92                     93
                      A                      A                      A
 Frequencies --   1480.0470              1498.6848              1516.3621
 Red. masses --      2.4841                 1.2603                 1.1363
 Frc consts  --      3.2060                 1.6678                 1.5394
 IR Inten    --      8.3325                72.9299                 2.3468

                     94                     95                     96
                      A                      A                      A
 Frequencies --   1521.0889              1525.3487              1526.2143
 Red. masses --      1.0667                 1.9212                 1.3135
 Frc consts  --      1.4541                 2.6336                 1.8027
 IR Inten    --     12.2779                 3.3448                 5.7144

                     97                     98                     99
                      A                      A                      A
 Frequencies --   1529.0812              1534.0849              1547.5812
 Red. masses --      1.0759                 1.0747                 1.0928
 Frc consts  --      1.4821                 1.4901                 1.5420
 IR Inten    --     16.3208                 5.4011                10.5861

                    100                    101                    102
                      A                      A                      A
 Frequencies --   1581.9532              1664.9360              1693.6668
 Red. masses --      3.9631                 7.6148                 6.7118
 Frc consts  --      5.8435                12.4367                11.3435
 IR Inten    --     41.7635                16.2393                23.6643

                    103                    104                    105
                      A                      A                      A
 Frequencies --   1711.8950              3045.8661              3089.1813
 Red. masses --      6.4611                 1.0830                 1.0404
 Frc consts  --     11.1561                 5.9196                 5.8498
 IR Inten    --      6.9263                26.3834                 9.1661

                    106                    107                    108
                      A                      A                      A
 Frequencies --   3103.7023              3115.3564              3115.7562
 Red. masses --      1.0838                 1.0622                 1.0630
 Frc consts  --      6.1511                 6.0740                 6.0800
 IR Inten    --     10.7400                13.1389                 3.3658

                    109                    110                    111
                      A                      A                      A
 Frequencies --   3124.5104              3133.9137              3142.9553
 Red. masses --      1.0646                 1.0829                 1.0875
 Frc consts  --      6.1235                 6.2663                 6.3293
 IR Inten    --      5.6786                 5.3413                13.0316

                    112                    113                    114
                      A                      A                      A
 Frequencies --   3153.3910              3161.4816              3165.3059
 Red. masses --      1.0668                 1.1022                 1.1051
 Frc consts  --      6.2499                 6.4907                 6.5233
 IR Inten    --     12.3040                24.4882                13.6703

                    115                    116                    117
                      A                      A                      A
 Frequencies --   3169.1853              3178.2102              3184.2426
 Red. masses --      1.1049                 1.1037                 1.1099
 Frc consts  --      6.5386                 6.5682                 6.6302
 IR Inten    --      6.5714                10.4775                 5.4912

                    118                    119                    120
                      A                      A                      A
 Frequencies --   3211.4292              3213.3839              3230.8001
 Red. masses --      1.0889                 1.0908                 1.1063
 Frc consts  --      6.6167                 6.6365                 6.8036
 IR Inten    --     18.6497                22.2937                 4.9540

                    121                    122                    123
                      A                      A                      A
 Frequencies --   3237.4246              3248.3649              3255.0879
 Red. masses --      1.0896                 1.0938                 1.0930
 Frc consts  --      6.7283                 6.7998                 6.8231
 IR Inten    --      7.3921                 8.4375                 1.1056

                    124                    125                    126
                      A                      A                      A
 Frequencies --   3258.9339              3489.2330              3799.8423
 Red. masses --      1.0976                 1.0764                 1.0664
 Frc consts  --      6.8682                 7.7214                 9.0724
 IR Inten    --      6.0865                61.7748               109.1166

 - Thermochemistry -
 -------------------
 Temperature   298.150 Kelvin.  Pressure   1.00000 Atm.
 Atom     1 has atomic number  8 and mass  15.99491

 Molecular mass:   283.18104 amu.
 Principal axes and moments of inertia in atomic units:
                           1         2         3
     Eigenvalues --  3180.099478608.804879643.63483
           X            0.99999   0.00055  -0.00389
           Y           -0.00052   0.99997   0.00708
           Z            0.00389  -0.00708   0.99997
 This molecule is an asymmetric top.
 Rotational symmetry number  1.
 Warning -- assumption of classical behavior for rotation
           may cause significant error
 Rotational temperatures (Kelvin)      0.02724     0.01006     0.00898
 Rotational constants (GHZ):           0.56751     0.20964     0.18714
 Zero-point vibrational energy    1032685.6 (Joules/Mol)
                                  246.81778 (Kcal/Mol)
 Warning -- explicit consideration of  27 degrees of freedom as
           vibrations may cause significant error
 Vibrational temperatures:     42.56    66.88    75.26    96.62   188.96
          (Kelvin)            236.96   265.17   281.77   334.21   344.44
                              361.30   381.22   414.37   441.00   497.74
                              556.38   581.87   599.69   606.46   621.83
                              665.32   691.91   736.12   758.47   784.05
                              835.45   861.99   901.77   924.16   946.95
                             1010.80  1115.14  1122.13  1129.81  1153.27
                             1182.51  1188.17  1212.89  1225.56  1261.44
                             1277.22  1286.88  1318.33  1365.02  1368.05
                             1398.30  1410.02  1425.69  1441.53  1463.10
                             1480.91  1483.11  1486.28  1500.17  1529.51
                             1539.24  1561.75  1590.26  1592.64  1613.47
                             1680.02  1685.80  1687.89  1704.24  1719.80
                             1755.40  1770.15  1798.95  1799.47  1834.32
                             1851.34  1855.14  1873.72  1877.77  1909.24
                             1931.99  1947.37  1950.22  1964.54  1981.51
                             1990.53  1997.98  2016.15  2041.46  2050.44
                             2064.93  2075.48  2083.30  2093.90  2106.88
                             2129.46  2156.27  2181.71  2188.51  2194.64
                             2195.88  2200.01  2207.21  2226.62  2276.08
                             2395.47  2436.81  2463.04  4382.32  4444.64
                             4465.54  4482.30  4482.88  4495.47  4509.00
                             4522.01  4537.03  4548.67  4554.17  4559.75
                             4572.74  4581.41  4620.53  4623.34  4648.40
                             4657.93  4673.67  4683.35  4688.88  5020.23
                             5467.13

 Zero-point correction=                           0.393329 (Hartree/Particle)
 Thermal correction to Energy=                    0.410359
 Thermal correction to Enthalpy=                  0.411304
 Thermal correction to Gibbs Free Energy=         0.348471
 Sum of electronic and zero-point Energies=           -883.548909
 Sum of electronic and thermal Energies=              -883.531878
 Sum of electronic and thermal Enthalpies=            -883.530934
 Sum of electronic and thermal Free Energies=         -883.593767

                     E (Thermal)             CV                S
                      KCal/Mol        Cal/Mol-Kelvin    Cal/Mol-Kelvin
 Total                  257.504             70.671            132.242
 Electronic               0.000              0.000              0.000
 Translational            0.889              2.981             42.821
 Rotational               0.889              2.981             33.934
 Vibrational            255.727             64.710             55.487
 Vibration     1          0.593              1.984              5.857
 Vibration     2          0.595              1.979              4.962
 Vibration     3          0.596              1.977              4.728
 Vibration     4          0.598              1.970              4.235
 Vibration     5          0.612              1.922              2.926
 Vibration     6          0.623              1.886              2.495
 Vibration     7          0.631              1.861              2.284
 Vibration     8          0.636              1.846              2.172
 Vibration     9          0.653              1.792              1.861
 Vibration    10          0.657              1.780              1.807
 Vibration    11          0.663              1.761              1.723
 Vibration    12          0.671              1.737              1.629
 Vibration    13          0.685              1.696              1.486
 Vibration    14          0.697              1.661              1.381
 Vibration    15          0.724              1.584              1.185
 Vibration    16          0.755              1.499              1.013
 Vibration    17          0.770              1.461              0.947
 Vibration    18          0.780              1.434              0.903
 Vibration    19          0.784              1.423              0.887
 Vibration    20          0.793              1.400              0.852
 Vibration    21          0.820              1.333              0.759
 Vibration    22          0.837              1.292              0.708
 Vibration    23          0.867              1.224              0.630
 Vibration    24          0.882              1.190              0.594
 Vibration    25          0.900              1.151              0.555
 Vibration    26          0.937              1.073              0.484
 Vibration    27          0.957              1.034              0.451

 Optimization completed.
    -- Stationary point found.
 Normal termination of Gaussian 16 at Fri Dec 15 10:18:20 2023.
