 Gaussian 16, Revision C.01,
 Gaussian 16:  ES64L-G16RevC.01  3-Jul-2019

 ----------------------------------------------------------------------
 # m062x 6-31g(d) scrf=(iefpcm,solvent=benzene) opt=(calcfc,maxcycles=5
 0,maxstep=10) freq=noraman
 ----------------------------------------------------------------------

 -------------
 Structure1280
 -------------
 Symbolic Z-matrix:
 Charge =  0 Multiplicity = 1

 SCF Done:  E(RM062X) =  -950.328771753     A.U. after   13 cycles
 SCF Done:  E(RM062X) =  -950.337451585     A.U. after   12 cycles
 SCF Done:  E(RM062X) =  -950.345290219     A.U. after   12 cycles
 SCF Done:  E(RM062X) =  -950.345587650     A.U. after   14 cycles
 SCF Done:  E(RM062X) =  -950.346609382     A.U. after   14 cycles
 SCF Done:  E(RM062X) =  -950.347514562     A.U. after   12 cycles
 SCF Done:  E(RM062X) =  -950.347637053     A.U. after   12 cycles
 SCF Done:  E(RM062X) =  -950.347696069     A.U. after   11 cycles
 SCF Done:  E(RM062X) =  -950.347709838     A.U. after   10 cycles
 SCF Done:  E(RM062X) =  -950.347710224     A.U. after    8 cycles
 SCF Done:  E(RM062X) =  -950.347710274     A.U. after    7 cycles
 SCF Done:  E(RM062X) =  -950.347710286     A.U. after    7 cycles
 Optimization completed on the basis of negligible forces.
    -- Stationary point found.
 Normal termination of Gaussian 16 at Thu Dec 14 18:50:33 2023.

 --------------------------------------------------------------------
 #N Geom=AllCheck Guess=TCheck SCRF=Check GenChk RM062X/6-31G(d) Freq
 --------------------------------------------------------------------

 Structure from the checkpoint file:  "inoue_OPLS3e_1_opt_hess.chk"
 -------------
 Structure1280
 -------------
 Charge =  0 Multiplicity = 1

                         Standard orientation:
 ---------------------------------------------------------------------
 Center     Atomic      Atomic             Coordinates (Angstroms)
 Number     Number       Type             X           Y           Z
 ---------------------------------------------------------------------
      1          7           0        0.512620   -0.311227    0.364815
      2          6           0       -1.500325    0.548071    1.376082
      3          7           0       -1.406572    1.579515    0.355943
      4          6           0        0.948162    1.062586    0.141347
      5          1           0       -1.087382    0.919976    2.327724
      6          6           0       -2.957515    0.146080    1.622788
      7          1           0        1.367706    1.479218    1.071296
      8          6           0        2.021399    1.107631   -0.949691
      9          8           0       -0.965287   -1.809464    1.216276
     10          6           0       -0.637820   -0.652433    0.977164
     11          8           0       -0.151787    2.851013   -1.049103
     12          6           0       -0.251166    1.932012   -0.256143
     13          1           0        1.170305   -1.060640    0.170557
     14          1           0       -2.244915    2.079848    0.081923
     15          1           0        2.288215    2.156914   -1.097791
     16          1           0        1.578677    0.752583   -1.885943
     17          6           0        5.426787   -1.287231    0.179192
     18          6           0        4.523252   -1.763706   -0.765227
     19          6           0        3.431484   -0.982360   -1.142885
     20          6           0        3.229067    0.280810   -0.581515
     21          6           0        4.144695    0.748989    0.366746
     22          6           0        5.235691   -0.026301    0.743885
     23          1           0        6.279081   -1.891811    0.472564
     24          1           0        4.667831   -2.741379   -1.214286
     25          1           0        2.734873   -1.350717   -1.893108
     26          1           0        4.002157    1.734293    0.805169
     27          1           0        5.940918    0.353787    1.476552
     28          1           0       -3.486600    1.005960    2.045586
     29          1           0       -2.952854   -0.641504    2.381880
     30          6           0       -3.681278   -0.299499    0.395900
     31          6           0       -4.682900    0.280490   -0.341899
     32          7           0       -5.025209   -0.509111   -1.412418
     33          6           0       -4.237646   -1.556296   -1.325206
     34          7           0       -3.408219   -1.480519   -0.253002
     35          1           0       -5.183440    1.220074   -0.146579
     36          1           0       -4.224909   -2.396537   -2.005443
     37          1           0       -2.692718   -2.136114    0.041926
 ---------------------------------------------------------------------

 SCF Done:  E(RM062X) =  -950.347710286     A.U. after    1 cycles

 The electronic state is 1-A.
 Alpha  occ. eigenvalues --  -19.62957 -19.62030 -14.80703 -14.80497 -14.79948
 Alpha  occ. eigenvalues --  -14.73512 -10.67443 -10.66709 -10.61822 -10.61612
 Alpha  occ. eigenvalues --  -10.59608 -10.57884 -10.57487 -10.56909 -10.56440
 Alpha  occ. eigenvalues --  -10.56009 -10.55974 -10.55931 -10.55880 -10.55747
 Alpha  occ. eigenvalues --  -10.55393  -1.18278  -1.17008  -1.12316  -1.07464
 Alpha  occ. eigenvalues --   -1.03845  -0.97105  -0.96859  -0.90799  -0.89716
 Alpha  occ. eigenvalues --   -0.84918  -0.84410  -0.82937  -0.77137  -0.76102
 Alpha  occ. eigenvalues --   -0.70908  -0.69750  -0.68855  -0.67275  -0.66525
 Alpha  occ. eigenvalues --   -0.64264  -0.62124  -0.61889  -0.60163  -0.59184
 Alpha  occ. eigenvalues --   -0.58117  -0.55752  -0.53409  -0.53301  -0.51982
 Alpha  occ. eigenvalues --   -0.51869  -0.50805  -0.49950  -0.49748  -0.49311
 Alpha  occ. eigenvalues --   -0.49010  -0.47613  -0.47027  -0.46617  -0.46367
 Alpha  occ. eigenvalues --   -0.45077  -0.44741  -0.43849  -0.43180  -0.40401
 Alpha  occ. eigenvalues --   -0.40280  -0.36295  -0.35736  -0.33540  -0.33475
 Alpha  occ. eigenvalues --   -0.32373  -0.31679  -0.31284  -0.30474  -0.27463
 Alpha virt. eigenvalues --    0.02046   0.02354   0.04471   0.05768   0.07431
 Alpha virt. eigenvalues --    0.11092   0.12542   0.13424   0.13992   0.15205
 Alpha virt. eigenvalues --    0.15616   0.16240   0.17238   0.18288   0.18629

 Mulliken charges:
               1
     1  N   -0.667890
     2  C   -0.060374
     3  N   -0.670299
     4  C   -0.067507
     5  H    0.212544
     6  C   -0.391198
     7  H    0.206396
     8  C   -0.381137
     9  O   -0.567132
    10  C    0.654256
    11  O   -0.537637
    12  C    0.659194
    13  H    0.377476
    14  H    0.373330
    15  H    0.210560
    16  H    0.191022
    17  C   -0.170047
    18  C   -0.163364
    19  C   -0.227437
    20  C    0.091100
    21  C   -0.198423
    22  C   -0.166986
    23  H    0.177194
    24  H    0.178981
    25  H    0.175622
    26  H    0.170718
    27  H    0.177836
    28  H    0.194997
    29  H    0.212213
    30  C    0.279568
    31  C   -0.112312
    32  N   -0.477191
    33  C    0.206404
    34  N   -0.652631
    35  H    0.166413
    36  H    0.195461
    37  H    0.400279
 Sum of Mulliken charges =  -0.00000

 Dipole moment (field-independent basis, Debye):
    X=              4.7969    Y=             -1.1336    Z=              3.7576  Tot=              6.1979
 Quadrupole moment (field-independent basis, Debye-Ang):
   XX=           -131.8129   YY=           -123.3024   ZZ=           -122.3833
   XY=             -5.2710   XZ=             -8.9168   YZ=             14.8569

  Exact polarizability:     225.160     -16.074     191.738      24.080      14.461     155.306
 Approx polarizability:     217.199     -17.978     231.974      30.605      13.622     189.145

                      1                      2                      3
                      A                      A                      A
 Frequencies --      8.8015                28.3900                43.9515
 Red. masses --      6.5770                 4.3169                 7.1670
 Frc consts  --      0.0003                 0.0020                 0.0082
 IR Inten    --      0.5325                 0.2914                 0.5581

                      4                      5                      6
                      A                      A                      A
 Frequencies --     47.8303                67.9964                73.0630
 Red. masses --      4.6290                 5.1082                 4.4851
 Frc consts  --      0.0062                 0.0139                 0.0141
 IR Inten    --      0.5271                 1.1557                 5.9105

                      7                      8                      9
                      A                      A                      A
 Frequencies --    121.9538               129.4078               155.2967
 Red. masses --      5.5151                 7.8696                 7.7815
 Frc consts  --      0.0483                 0.0776                 0.1106
 IR Inten    --      1.9078                 0.9672                 7.4274

                     10                     11                     12
                      A                      A                      A
 Frequencies --    187.8051               225.4634               226.5156
 Red. masses --      5.2265                 5.4811                 6.4687
 Frc consts  --      0.1086                 0.1642                 0.1956
 IR Inten    --      3.5478                 0.5714                 2.0158

                     13                     14                     15
                      A                      A                      A
 Frequencies --    269.1777               335.0816               349.2114
 Red. masses --      7.4641                 2.8837                 1.8884
 Frc consts  --      0.3186                 0.1908                 0.1357
 IR Inten    --      5.5560                 3.9142                 2.7097

                     16                     17                     18
                      A                      A                      A
 Frequencies --    374.3051               407.8230               417.0340
 Red. masses --      2.5157                 3.7277                 2.9699
 Frc consts  --      0.2077                 0.3653                 0.3043
 IR Inten    --     22.1344                 0.8351                 0.2143

                     19                     20                     21
                      A                      A                      A
 Frequencies --    441.9939               465.1117               493.2208
 Red. masses --      2.2648                 3.4725                 3.7169
 Frc consts  --      0.2607                 0.4426                 0.5327
 IR Inten    --     63.6491                26.6684                21.5251

                     22                     23                     24
                      A                      A                      A
 Frequencies --    515.8646               526.3964               574.7738
 Red. masses --      2.7867                 3.2168                 4.5677
 Frc consts  --      0.4369                 0.5252                 0.8891
 IR Inten    --     63.8277                 8.3083                 4.9875

                     25                     26                     27
                      A                      A                      A
 Frequencies --    608.6245               623.1193               631.1307
 Red. masses --      1.4891                 3.8412                 5.8955
 Frc consts  --      0.3250                 0.8787                 1.3836
 IR Inten    --     63.4576                10.1369                 1.2788

                     28                     29                     30
                      A                      A                      A
 Frequencies --    638.6708               672.1492               677.5529
 Red. masses --      3.7161                 4.0973                 3.4424
 Frc consts  --      0.8931                 1.0906                 0.9311
 IR Inten    --     37.3592                56.1976                31.5828

                     31                     32                     33
                      A                      A                      A
 Frequencies --    693.3277               722.8891               730.1307
 Red. masses --      4.4577                 1.8811                 1.5213
 Frc consts  --      1.2625                 0.5792                 0.4778
 IR Inten    --     33.1944                34.2026                33.3824

                     34                     35                     36
                      A                      A                      A
 Frequencies --    744.7337               771.5818               790.6577
 Red. masses --      2.5708                 1.9884                 2.9061
 Frc consts  --      0.8401                 0.6975                 1.0704
 IR Inten    --     64.0038                48.9745                 8.1954

                     37                     38                     39
                      A                      A                      A
 Frequencies --    835.3775               848.5886               859.4739
 Red. masses --      4.0472                 1.3607                 1.4541
 Frc consts  --      1.6641                 0.5773                 0.6329
 IR Inten    --      2.0569                30.4240                12.1300

                     40                     41                     42
                      A                      A                      A
 Frequencies --    879.4812               890.6498               901.0500
 Red. masses --      1.2513                 3.3970                 2.3559
 Frc consts  --      0.5702                 1.5877                 1.1269
 IR Inten    --      0.0340                15.0368                 6.6904

                     43                     44                     45
                      A                      A                      A
 Frequencies --    942.7352               949.0822               956.6540
 Red. masses --      4.1535                 2.0430                 1.9971
 Frc consts  --      2.1749                 1.0842                 1.0768
 IR Inten    --      9.1162                 3.6496                23.2550

                     46                     47                     48
                      A                      A                      A
 Frequencies --    967.8573               999.0263              1018.2048
 Red. masses --      2.5611                 1.3587                 5.5829
 Frc consts  --      1.4135                 0.7989                 3.4102
 IR Inten    --      4.0169                 0.1291                 1.1015

                     49                     50                     51
                      A                      A                      A
 Frequencies --   1025.5341              1026.9162              1068.0934
 Red. masses --      1.3374                 3.4005                 2.1921
 Frc consts  --      0.8287                 2.1128                 1.4735
 IR Inten    --      0.2308                 7.1195                 1.7616

                     52                     53                     54
                      A                      A                      A
 Frequencies --   1075.2599              1082.1305              1124.1643
 Red. masses --      2.0705                 2.0289                 1.5704
 Frc consts  --      1.4104                 1.3998                 1.1693
 IR Inten    --      3.2522                 9.1976                 4.5664

                     55                     56                     57
                      A                      A                      A
 Frequencies --   1142.5942              1148.8704              1161.8029
 Red. masses --      1.4803                 2.0939                 1.7720
 Frc consts  --      1.1387                 1.6283                 1.4092
 IR Inten    --     75.6798                21.2852                 3.3258

                     58                     59                     60
                      A                      A                      A
 Frequencies --   1168.7450              1184.0580              1208.6663
 Red. masses --      1.8510                 1.1192                 1.1158
 Frc consts  --      1.4897                 0.9245                 0.9604
 IR Inten    --      7.3104                 0.1973                 0.3117

                     61                     62                     63
                      A                      A                      A
 Frequencies --   1235.2591              1244.2838              1248.2122
 Red. masses --      1.5362                 2.1283                 1.5116
 Frc consts  --      1.3811                 1.9415                 1.3876
 IR Inten    --     23.3325                 4.7779                13.1314

                     64                     65                     66
                      A                      A                      A
 Frequencies --   1286.2052              1292.8725              1296.7964
 Red. masses --      1.4182                 2.3698                 1.3009
 Frc consts  --      1.3824                 2.3338                 1.2890
 IR Inten    --      2.3147                 3.1297                12.1333

                     67                     68                     69
                      A                      A                      A
 Frequencies --   1315.6025              1325.0410              1345.1780
 Red. masses --      1.6422                 1.4940                 3.2427
 Frc consts  --      1.6747                 1.5455                 3.4572
 IR Inten    --      4.8071                15.4437                10.6764

                     70                     71                     72
                      A                      A                      A
 Frequencies --   1359.9084              1368.3204              1384.1250
 Red. masses --      1.5002                 1.4834                 1.5623
 Frc consts  --      1.6347                 1.6364                 1.7634
 IR Inten    --      6.7488                45.5164                44.5694

                     73                     74                     75
                      A                      A                      A
 Frequencies --   1392.9905              1412.9397              1433.7613
 Red. masses --      1.5979                 2.1395                 3.0174
 Frc consts  --      1.8268                 2.5166                 3.6545
 IR Inten    --     17.5212                45.3494                51.6189

                     76                     77                     78
                      A                      A                      A
 Frequencies --   1453.1718              1472.3059              1476.6608
 Red. masses --      2.6249                 2.4692                 2.9001
 Frc consts  --      3.2659                 3.1536                 3.7259
 IR Inten    --    183.1167               341.3004                61.6469

                     79                     80                     81
                      A                      A                      A
 Frequencies --   1494.0511              1499.4904              1510.3815
 Red. masses --      1.2990                 1.1782                 2.0956
 Frc consts  --      1.7084                 1.5609                 2.8166
 IR Inten    --      5.4300                 4.1046                10.9875

                     82                     83                     84
                      A                      A                      A
 Frequencies --   1528.7032              1553.4838              1554.6130
 Red. masses --      3.2938                 4.2980                 2.4515
 Frc consts  --      4.5351                 6.1113                 3.4908
 IR Inten    --     19.2738                35.2416                15.3623

                     85                     86                     87
                      A                      A                      A
 Frequencies --   1661.4417              1675.7264              1696.9367
 Red. masses --      5.1705                 6.0361                 6.1259
 Frc consts  --      8.4092                 9.9865                10.3932
 IR Inten    --     15.1883                 1.9746                 5.1233

                     88                     89                     90
                      A                      A                      A
 Frequencies --   1810.9937              1843.3156              3028.5102
 Red. masses --      9.2418                10.3335                 1.0823
 Frc consts  --     17.8583                20.6871                 5.8489
 IR Inten    --    676.8347               474.2086                36.8229

                     91                     92                     93
                      A                      A                      A
 Frequencies --   3033.7669              3108.0423              3111.6489
 Red. masses --      1.0824                 1.0616                 1.0631
 Frc consts  --      5.8694                 6.0421                 6.0648
 IR Inten    --     10.2711                15.8788                 9.2850

                     94                     95                     96
                      A                      A                      A
 Frequencies --   3155.8252              3167.4163              3205.9902
 Red. masses --      1.1042                 1.1029                 1.0895
 Frc consts  --      6.4791                 6.5194                 6.5980
 IR Inten    --      3.9369                 4.7221                 8.5500

                     97                     98                     99
                      A                      A                      A
 Frequencies --   3207.1029              3228.2859              3236.9338
 Red. masses --      1.0892                 1.0887                 1.0939
 Frc consts  --      6.6007                 6.6853                 6.7529
 IR Inten    --      8.9106                 1.3317                21.6654

                    100                    101                    102
                      A                      A                      A
 Frequencies --   3248.2893              3281.8214              3301.0260
 Red. masses --      1.0985                 1.0969                 1.0981
 Frc consts  --      6.8289                 6.9607                 7.0500
 IR Inten    --     16.6159                 8.1737                 1.4092

                    103                    104                    105
                      A                      A                      A
 Frequencies --   3590.0124              3614.5421              3618.2770
 Red. masses --      1.0772                 1.0776                 1.0833
 Frc consts  --      8.1793                 8.2947                 8.3561
 IR Inten    --    148.8984                37.5622               233.2675

 - Thermochemistry -
 -------------------
 Temperature   298.150 Kelvin.  Pressure   1.00000 Atm.
 Atom     1 has atomic number  7 and mass  14.00307

 Molecular mass:   284.12733 amu.
 Principal axes and moments of inertia in atomic units:
                           1         2         3
     Eigenvalues --  2608.94635********************
           X            0.99999  -0.00385  -0.00283
           Y            0.00398   0.99880   0.04878
           Z            0.00264  -0.04879   0.99881
 This molecule is an asymmetric top.
 Rotational symmetry number  1.
 Warning -- assumption of classical behavior for rotation
           may cause significant error
 Rotational temperatures (Kelvin)      0.03320     0.00745     0.00693
 Rotational constants (GHZ):           0.69175     0.15513     0.14439
 Zero-point vibrational energy     798904.0 (Joules/Mol)
                                  190.94263 (Kcal/Mol)
 Warning -- explicit consideration of  25 degrees of freedom as
           vibrations may cause significant error
 Vibrational temperatures:     12.66    40.85    63.24    68.82    97.83
          (Kelvin)            105.12   175.46   186.19   223.44   270.21
                              324.39   325.91   387.29   482.11   502.44
                              538.54   586.77   600.02   635.93   669.19
                              709.63   742.21   757.37   826.97   875.67
                              896.53   908.06   918.90   967.07   974.85
                              997.54  1040.08  1050.50  1071.51  1110.13
                             1137.58  1201.92  1220.93  1236.59  1265.38
                             1281.45  1296.41  1356.39  1365.52  1376.41
                             1392.53  1437.38  1464.97  1475.51  1477.50
                             1536.75  1547.06  1556.94  1617.42  1643.94
                             1652.97  1671.58  1681.56  1703.60  1739.00
                             1777.26  1790.25  1795.90  1850.56  1860.16
                             1865.80  1892.86  1906.44  1935.41  1956.60
                             1968.71  1991.45  2004.20  2032.91  2062.86
                             2090.79  2118.32  2124.59  2149.61  2157.43
                             2173.10  2199.46  2235.12  2236.74  2390.44
                             2411.00  2441.51  2605.62  2652.12  4357.35
                             4364.91  4471.78  4476.97  4540.53  4557.21
                             4612.70  4614.31  4644.78  4657.23  4673.56
                             4721.81  4749.44  5165.23  5200.52  5205.89

 Zero-point correction=                           0.304286 (Hartree/Particle)
 Thermal correction to Energy=                    0.321822
 Thermal correction to Enthalpy=                  0.322767
 Thermal correction to Gibbs Free Energy=         0.255381
 Sum of electronic and zero-point Energies=           -950.043424
 Sum of electronic and thermal Energies=              -950.025888
 Sum of electronic and thermal Enthalpies=            -950.024944
 Sum of electronic and thermal Free Energies=         -950.092329

                     E (Thermal)             CV                S
                      KCal/Mol        Cal/Mol-Kelvin    Cal/Mol-Kelvin
 Total                  201.947             67.838            141.825
 Electronic               0.000              0.000              0.000
 Translational            0.889              2.981             42.831
 Rotational               0.889              2.981             34.294
 Vibrational            200.169             61.877             64.700
 Vibration     1          0.593              1.987              8.265
 Vibration     2          0.593              1.984              5.939
 Vibration     3          0.595              1.980              5.073
 Vibration     4          0.595              1.978              4.905
 Vibration     5          0.598              1.969              4.211
 Vibration     6          0.599              1.967              4.069
 Vibration     7          0.609              1.931              3.069
 Vibration     8          0.612              1.924              2.955
 Vibration     9          0.620              1.897              2.606
 Vibration    10          0.632              1.857              2.249
 Vibration    11          0.650              1.802              1.915
 Vibration    12          0.650              1.801              1.906
 Vibration    13          0.674              1.730              1.601
 Vibration    14          0.716              1.605              1.235
 Vibration    15          0.726              1.577              1.170
 Vibration    16          0.745              1.525              1.062
 Vibration    17          0.772              1.453              0.934
 Vibration    18          0.780              1.433              0.902
 Vibration    19          0.802              1.379              0.820
 Vibration    20          0.823              1.327              0.751
 Vibration    21          0.849              1.265              0.675
 Vibration    22          0.871              1.215              0.620
 Vibration    23          0.881              1.192              0.595
 Vibration    24          0.931              1.086              0.495
 Vibration    25          0.968              1.014              0.435

 Optimization completed on the basis of negligible forces.
    -- Stationary point found.
 Normal termination of Gaussian 16 at Thu Dec 14 18:56:52 2023.
