 Gaussian 16, Revision C.01,
 Gaussian 16:  ES64L-G16RevC.01  3-Jul-2019

 ----------------------------------------------------------------------
 # m062x 6-31g(d) scrf=(iefpcm,solvent=benzene) opt=(maxcycles=50,maxst
 ep=10) freq=noraman
 ----------------------------------------------------------------------

 ----------
 Structure2
 ----------
 Symbolic Z-matrix:
 Charge =  1 Multiplicity = 1

 SCF Done:  E(RM062X) =  -1148.01303324     A.U. after   14 cycles
 SCF Done:  E(RM062X) =  -1148.02026042     A.U. after   12 cycles
 SCF Done:  E(RM062X) =  -1148.03013241     A.U. after   12 cycles
 SCF Done:  E(RM062X) =  -1148.03013578     A.U. after   12 cycles
 SCF Done:  E(RM062X) =  -1148.03136774     A.U. after   14 cycles
 SCF Done:  E(RM062X) =  -1148.03152519     A.U. after   12 cycles
 SCF Done:  E(RM062X) =  -1148.03291767     A.U. after    9 cycles
 SCF Done:  E(RM062X) =  -1148.03387282     A.U. after   11 cycles
 SCF Done:  E(RM062X) =  -1148.03375067     A.U. after   11 cycles
 SCF Done:  E(RM062X) =  -1148.03422950     A.U. after   11 cycles
 SCF Done:  E(RM062X) =  -1148.03433836     A.U. after   11 cycles
 SCF Done:  E(RM062X) =  -1148.03440416     A.U. after   11 cycles
 SCF Done:  E(RM062X) =  -1148.03440743     A.U. after    8 cycles
 SCF Done:  E(RM062X) =  -1148.03440776     A.U. after    7 cycles
 SCF Done:  E(RM062X) =  -1148.03439841     A.U. after    9 cycles
 SCF Done:  E(RM062X) =  -1148.03416544     A.U. after   12 cycles
 SCF Done:  E(RM062X) =  -1148.03438667     A.U. after   11 cycles
 SCF Done:  E(RM062X) =  -1148.03438680     A.U. after    7 cycles
 SCF Done:  E(RM062X) =  -1148.03438684     A.U. after    6 cycles
 Optimization completed.
    -- Stationary point found.
 Normal termination of Gaussian 16 at Mon Dec 18 01:19:59 2023.

 --------------------------------------------------------------------
 #N Geom=AllCheck Guess=TCheck SCRF=Check GenChk RM062X/6-31G(d) Freq
 --------------------------------------------------------------------

 Structure from the checkpoint file:  "johnston_OPLS3e_1_opt_freq.chk"
 ----------
 Structure2
 ----------
 Charge =  1 Multiplicity = 1

                         Standard orientation:
 ---------------------------------------------------------------------
 Center     Atomic      Atomic             Coordinates (Angstroms)
 Number     Number       Type             X           Y           Z
 ---------------------------------------------------------------------
      1          6           0        2.365198   -1.217288   -0.437879
      2          6           0        2.718557   -0.403835    0.822370
      3          6           0        3.584718    0.807873    0.452934
      4          6           0        4.851810    0.379022   -0.288572
      5          6           0        4.499286   -0.428336   -1.537783
      6          6           0        3.638531   -1.639893   -1.177982
      7          1           0        1.761406   -0.596933   -1.108233
      8          7           0        1.600020   -2.416885   -0.104285
      9          1           0        3.312691   -1.072916    1.458874
     10          7           0        1.545711   -0.054380    1.638991
     11          1           0        3.833684    1.351350    1.370883
     12          1           0        2.998273    1.485242   -0.178764
     13          1           0        5.440291    1.260812   -0.558086
     14          1           0        5.478225   -0.232338    0.374692
     15          1           0        3.950512    0.209049   -2.243058
     16          1           0        5.405524   -0.764061   -2.049897
     17          1           0        4.216379   -2.315461   -0.529799
     18          1           0        3.359623   -2.204347   -2.073222
     19          1           0        2.132521   -3.254147    0.101682
     20          1           0        1.741330   -0.116275    2.630511
     21          7           0       -0.526946   -1.488881   -0.259968
     22          6           0        0.274263   -2.538268   -0.033413
     23          6           0       -0.322205   -3.809662    0.258705
     24          6           0       -1.672155   -3.924690    0.305374
     25          1           0       -2.126858   -4.886049    0.526642
     26          7           0        0.432858    1.208971    0.052688
     27          6           0        0.739953    1.026173    1.323541
     28          6           0        0.234298    1.859198    2.370913
     29          6           0       -0.570107    2.907295    2.040959
     30          1           0       -0.968339    3.562085    2.811205
     31          6           0       -0.883652    3.166860    0.676568
     32          6           0       -0.347476    2.281824   -0.292023
     33          6           0       -0.651885    2.490740   -1.658167
     34          6           0       -1.455504    3.542206   -2.033993
     35          6           0       -1.985139    4.428872   -1.069450
     36          6           0       -1.702493    4.243131    0.262788
     37          1           0       -0.232606    1.806166   -2.389731
     38          1           0       -1.682439    3.697644   -3.083891
     39          1           0       -2.612922    5.254946   -1.385522
     40          1           0       -2.103116    4.916336    1.015811
     41          6           0       -2.522766   -2.799183    0.064711
     42          6           0       -1.912895   -1.563204   -0.220880
     43          6           0       -2.687072   -0.419286   -0.460291
     44          6           0       -4.063443   -0.523433   -0.411073
     45          6           0       -4.691268   -1.749883   -0.127596
     46          6           0       -3.929077   -2.873843    0.106224
     47          1           0       -2.207524    0.527092   -0.689110
     48          1           0       -4.667347    0.358505   -0.596495
     49          1           0       -5.773388   -1.807154   -0.095025
     50          1           0       -4.395830   -3.829444    0.324897
     51          1           0        0.503897    1.654638    3.401655
     52          1           0        0.331897   -4.655930    0.433263
     53          1           0       -0.114252   -0.544923   -0.377177
 ---------------------------------------------------------------------

 SCF Done:  E(RM062X) =  -1148.03438684     A.U. after    1 cycles

 The electronic state is 1-A.
 Alpha  occ. eigenvalues --  -14.89053 -14.87211 -14.82997 -14.80889 -10.73552
 Alpha  occ. eigenvalues --  -10.68239 -10.67155 -10.65174 -10.64552 -10.64381
 Alpha  occ. eigenvalues --  -10.63608 -10.63415 -10.62851 -10.61836 -10.61516
 Alpha  occ. eigenvalues --  -10.61414 -10.61239 -10.60765 -10.60579 -10.60548
 Alpha  occ. eigenvalues --  -10.60021 -10.59791 -10.59786 -10.59313 -10.59172
 Alpha  occ. eigenvalues --  -10.58631 -10.58588 -10.58262  -1.19730  -1.13831
 Alpha  occ. eigenvalues --   -1.11850  -1.06814  -1.02289  -0.99737  -0.99075
 Alpha  occ. eigenvalues --   -0.97537  -0.95406  -0.92157  -0.90501  -0.89929
 Alpha  occ. eigenvalues --   -0.88496  -0.88004  -0.86761  -0.81101  -0.80041
 Alpha  occ. eigenvalues --   -0.78176  -0.77130  -0.76706  -0.75545  -0.73509
 Alpha  occ. eigenvalues --   -0.72856  -0.71417  -0.68937  -0.68751  -0.67327
 Alpha  occ. eigenvalues --   -0.66792  -0.64188  -0.63528  -0.62603  -0.61664
 Alpha  occ. eigenvalues --   -0.60954  -0.60241  -0.59239  -0.58688  -0.57321
 Alpha  occ. eigenvalues --   -0.56510  -0.56315  -0.56267  -0.55598  -0.54893
 Alpha  occ. eigenvalues --   -0.54780  -0.53900  -0.53405  -0.52467  -0.52282
 Alpha  occ. eigenvalues --   -0.51487  -0.50939  -0.50442  -0.49628  -0.47644
 Alpha  occ. eigenvalues --   -0.47220  -0.47018  -0.46175  -0.45992  -0.45962
 Alpha  occ. eigenvalues --   -0.45155  -0.44624  -0.43810  -0.43278  -0.42725
 Alpha  occ. eigenvalues --   -0.41231  -0.40841  -0.39047  -0.38024  -0.35092
 Alpha  occ. eigenvalues --   -0.33510  -0.32986  -0.31191
 Alpha virt. eigenvalues --   -0.08885  -0.06385  -0.03790  -0.02160  -0.00908
 Alpha virt. eigenvalues --    0.01142   0.05552   0.07276   0.07486   0.07831
 Alpha virt. eigenvalues --    0.09179   0.09296   0.09801   0.10812   0.11254

 Mulliken charges:
               1
     1  C   -0.028188
     2  C    0.020740
     3  C   -0.305550
     4  C   -0.310936
     5  C   -0.309185
     6  C   -0.321328
     7  H    0.203293
     8  N   -0.681274
     9  H    0.168414
    10  N   -0.683095
    11  H    0.173440
    12  H    0.182540
    13  H    0.182737
    14  H    0.159339
    15  H    0.167803
    16  H    0.183770
    17  H    0.161725
    18  H    0.189427
    19  H    0.390611
    20  H    0.366935
    21  N   -0.834552
    22  C    0.696171
    23  C   -0.243853
    24  C   -0.112149
    25  H    0.228395
    26  N   -0.662152
    27  C    0.507408
    28  C   -0.218462
    29  C   -0.148934
    30  H    0.207540
    31  C    0.083863
    32  C    0.222369
    33  C   -0.193666
    34  C   -0.167047
    35  C   -0.178272
    36  C   -0.200484
    37  H    0.178673
    38  H    0.192402
    39  H    0.191379
    40  H    0.191577
    41  C    0.062638
    42  C    0.312397
    43  C   -0.163372
    44  C   -0.176853
    45  C   -0.164972
    46  C   -0.205172
    47  H    0.203578
    48  H    0.206492
    49  H    0.203720
    50  H    0.204704
    51  H    0.198725
    52  H    0.223994
    53  H    0.442695
 Sum of Mulliken charges =   1.00000

 Dipole moment (field-independent basis, Debye):
    X=              0.6648    Y=             -5.3543    Z=              2.1330  Tot=              5.8017
 Quadrupole moment (field-independent basis, Debye-Ang):
   XX=           -114.1740   YY=           -109.9491   ZZ=           -145.9751
   XY=             -7.1631   XZ=              3.2399   YZ=             -0.7258

  Exact polarizability:     374.619     -61.834     327.677      19.041     -27.100     235.460
 Approx polarizability:     387.298     -79.604     360.705      25.936     -38.250     293.770

                      1                      2                      3
                      A                      A                      A
 Frequencies --     12.5285                38.2841                44.2675
 Red. masses --      4.6955                 5.2540                 4.7256
 Frc consts  --      0.0004                 0.0045                 0.0055
 IR Inten    --      1.6037                 0.0417                 0.4350

                      4                      5                      6
                      A                      A                      A
 Frequencies --     58.6671                73.6912                86.9212
 Red. masses --      4.3984                 4.7269                 4.3488
 Frc consts  --      0.0089                 0.0151                 0.0194
 IR Inten    --      0.9967                 3.4094                 0.8916

                      7                      8                      9
                      A                      A                      A
 Frequencies --    120.6076               131.3565               147.2294
 Red. masses --      3.7392                 4.5287                 3.8871
 Frc consts  --      0.0320                 0.0460                 0.0496
 IR Inten    --      0.3344                 2.9196                 1.2004

                     10                     11                     12
                      A                      A                      A
 Frequencies --    176.2449               185.6316               197.2917
 Red. masses --      4.0452                 4.3796                 3.9340
 Frc consts  --      0.0740                 0.0889                 0.0902
 IR Inten    --      4.8418                15.9136                 2.1630

                     13                     14                     15
                      A                      A                      A
 Frequencies --    229.4215               242.3849               291.1137
 Red. masses --      3.7609                 4.5560                 4.6500
 Frc consts  --      0.1166                 0.1577                 0.2322
 IR Inten    --      0.4727                 6.6847                 0.0185

                     16                     17                     18
                      A                      A                      A
 Frequencies --    305.7934               322.3072               342.4329
 Red. masses --      4.8454                 3.0292                 2.0359
 Frc consts  --      0.2670                 0.1854                 0.1407
 IR Inten    --      5.1575                 3.5629                 0.5358

                     19                     20                     21
                      A                      A                      A
 Frequencies --    348.7126               383.6809               398.4603
 Red. masses --      3.8089                 3.1199                 3.5093
 Frc consts  --      0.2729                 0.2706                 0.3283
 IR Inten    --      2.3841                 6.3076                 0.0560

                     22                     23                     24
                      A                      A                      A
 Frequencies --    407.0797               433.3127               446.0898
 Red. masses --      3.6283                 3.8254                 3.6632
 Frc consts  --      0.3543                 0.4232                 0.4295
 IR Inten    --      4.1598                 1.6597                 2.9302

                     25                     26                     27
                      A                      A                      A
 Frequencies --    460.7265               474.1581               480.3594
 Red. masses --      3.2261                 4.1077                 3.4642
 Frc consts  --      0.4035                 0.5441                 0.4710
 IR Inten    --      1.1762                 5.5647                 5.8012

                     28                     29                     30
                      A                      A                      A
 Frequencies --    488.2979               495.3725               527.8185
 Red. masses --      3.0846                 2.7335                 4.9605
 Frc consts  --      0.4333                 0.3952                 0.8142
 IR Inten    --      5.1399                 3.9238                 4.9557

                     31                     32                     33
                      A                      A                      A
 Frequencies --    532.1280               536.0400               545.5511
 Red. masses --      5.4917                 3.1360                 2.6533
 Frc consts  --      0.9162                 0.5309                 0.4653
 IR Inten    --      6.5309                22.2298                30.5555

                     34                     35                     36
                      A                      A                      A
 Frequencies --    560.0251               564.0989               584.3656
 Red. masses --      3.0025                 1.5903                 2.3856
 Frc consts  --      0.5548                 0.2982                 0.4800
 IR Inten    --      1.6057                49.7559                61.4176

                     37                     38                     39
                      A                      A                      A
 Frequencies --    597.6984               623.0076               637.9308
 Red. masses --      2.3405                 5.4332                 5.5207
 Frc consts  --      0.4926                 1.2425                 1.3237
 IR Inten    --     36.4157                21.1168                18.6683

                     40                     41                     42
                      A                      A                      A
 Frequencies --    685.1606               689.2013               711.1442
 Red. masses --      3.0529                 3.3083                 3.2856
 Frc consts  --      0.8444                 0.9259                 0.9790
 IR Inten    --     15.3269                 2.6021                 0.9456

                     43                     44                     45
                      A                      A                      A
 Frequencies --    751.5363               761.9778               765.1584
 Red. masses --      2.8171                 4.9169                 4.9487
 Frc consts  --      0.9374                 1.6820                 1.7071
 IR Inten    --      3.3720                 3.4573                 4.3998

                     46                     47                     48
                      A                      A                      A
 Frequencies --    785.4569               787.9617               798.2026
 Red. masses --      1.3129                 1.4802                 3.9725
 Frc consts  --      0.4772                 0.5415                 1.4912
 IR Inten    --     27.3212                43.2585                12.1969

                     49                     50                     51
                      A                      A                      A
 Frequencies --    800.5848               803.9256               813.0878
 Red. masses --      4.4745                 4.6249                 1.8569
 Frc consts  --      1.6897                 1.7611                 0.7233
 IR Inten    --      2.3960                 7.0485                 4.6956

                     52                     53                     54
                      A                      A                      A
 Frequencies --    845.2713               849.0980               872.3428
 Red. masses --      1.7788                 1.4447                 1.8336
 Frc consts  --      0.7488                 0.6137                 0.8221
 IR Inten    --     94.3860                55.3514                 6.8350

                     55                     56                     57
                      A                      A                      A
 Frequencies --    889.8096               895.0834               895.6807
 Red. masses --      1.7072                 1.4922                 1.4381
 Frc consts  --      0.7964                 0.7044                 0.6797
 IR Inten    --     12.3392                 6.5086                14.6408

                     58                     59                     60
                      A                      A                      A
 Frequencies --    910.2953               922.4833               940.9200
 Red. masses --      2.2495                 1.9498                 3.0088
 Frc consts  --      1.0983                 0.9776                 1.5695
 IR Inten    --      9.6179                74.4052                25.9642

                     61                     62                     63
                      A                      A                      A
 Frequencies --    947.6879               966.0727               987.1206
 Red. masses --      2.2655                 1.9506                 2.1029
 Frc consts  --      1.1988                 1.0726                 1.2073
 IR Inten    --     11.4815                 9.0010                 4.7603

                     64                     65                     66
                      A                      A                      A
 Frequencies --    987.7461               991.5269              1011.9680
 Red. masses --      1.4111                 1.3274                 2.9180
 Frc consts  --      0.8112                 0.7689                 1.7606
 IR Inten    --      1.5263                 3.0583                 3.5008

                     67                     68                     69
                      A                      A                      A
 Frequencies --   1015.3954              1020.8021              1025.4092
 Red. masses --      1.3753                 3.1880                 1.3019
 Frc consts  --      0.8354                 1.9573                 0.8065
 IR Inten    --      1.7283                 7.1004                 0.0496

                     70                     71                     72
                      A                      A                      A
 Frequencies --   1031.3094              1036.1261              1060.5138
 Red. masses --      1.3141                 1.3240                 2.0262
 Frc consts  --      0.8235                 0.8374                 1.3426
 IR Inten    --      0.6220                 0.7490                 1.6428

                     73                     74                     75
                      A                      A                      A
 Frequencies --   1075.9935              1077.1530              1079.5327
 Red. masses --      1.9156                 1.4085                 1.7494
 Frc consts  --      1.3067                 0.9629                 1.2012
 IR Inten    --      4.4181                 3.1457                 1.0170

                     76                     77                     78
                      A                      A                      A
 Frequencies --   1118.5056              1132.8977              1135.0122
 Red. masses --      2.2260                 2.8796                 3.1602
 Frc consts  --      1.6408                 2.1775                 2.3986
 IR Inten    --     21.7212                26.8722                10.5378

                     79                     80                     81
                      A                      A                      A
 Frequencies --   1154.4348              1169.4146              1173.7532
 Red. masses --      1.4911                 1.6661                 2.0418
 Frc consts  --      1.1709                 1.3424                 1.6574
 IR Inten    --     18.6230                 9.0058                15.0630

                     82                     83                     84
                      A                      A                      A
 Frequencies --   1174.6488              1177.8043              1181.0771
 Red. masses --      1.7631                 1.4226                 1.1655
 Frc consts  --      1.4333                 1.1627                 0.9579
 IR Inten    --     18.0828                 4.6777                 5.2216

                     85                     86                     87
                      A                      A                      A
 Frequencies --   1188.5229              1200.4741              1249.4954
 Red. masses --      1.1813                 1.1574                 1.6789
 Frc consts  --      0.9832                 0.9827                 1.5443
 IR Inten    --     16.9213                17.2016                 5.0568

                     88                     89                     90
                      A                      A                      A
 Frequencies --   1253.6112              1261.2450              1279.3599
 Red. masses --      1.7297                 2.0965                 1.3584
 Frc consts  --      1.6016                 1.9650                 1.3100
 IR Inten    --      1.0918                22.8609                 4.7074

                     91                     92                     93
                      A                      A                      A
 Frequencies --   1288.3737              1292.6613              1304.5461
 Red. masses --      1.6767                 1.3495                 1.5026
 Frc consts  --      1.6398                 1.3286                 1.5066
 IR Inten    --     33.8126                 2.8348                23.4024

                     94                     95                     96
                      A                      A                      A
 Frequencies --   1310.0967              1321.4457              1328.1642
 Red. masses --      2.1368                 1.3948                 2.0390
 Frc consts  --      2.1608                 1.4350                 2.1192
 IR Inten    --     87.4319                10.1092                13.3491

                     97                     98                     99
                      A                      A                      A
 Frequencies --   1335.4060              1352.8479              1368.5426
 Red. masses --      1.5841                 1.6887                 2.0141
 Frc consts  --      1.6644                 1.8210                 2.2225
 IR Inten    --     12.9046                 9.5709                29.1267

                    100                    101                    102
                      A                      A                      A
 Frequencies --   1377.2939              1387.3602              1394.3037
 Red. masses --      1.3879                 1.4702                 1.5839
 Frc consts  --      1.5512                 1.6672                 1.8142
 IR Inten    --      6.5610                 6.3531                29.4385

                    103                    104                    105
                      A                      A                      A
 Frequencies --   1407.8103              1408.5547              1412.8621
 Red. masses --      5.6171                 2.7926                 1.5454
 Frc consts  --      6.5592                 3.2645                 1.8176
 IR Inten    --     12.8390                86.6186                12.5830

                    106                    107                    108
                      A                      A                      A
 Frequencies --   1427.6297              1437.5796              1457.9896
 Red. masses --      1.7845                 1.5501                 3.2378
 Frc consts  --      2.1429                 1.8875                 4.0552
 IR Inten    --      5.1067                45.3043                 3.4429

                    109                    110                    111
                      A                      A                      A
 Frequencies --   1467.3313              1476.6815              1499.5033
 Red. masses --      1.6234                 2.0449                 2.8248
 Frc consts  --      2.0594                 2.6273                 3.7422
 IR Inten    --     22.1803                36.3347                 1.8679

                    112                    113                    114
                      A                      A                      A
 Frequencies --   1513.0338              1515.6388              1522.4409
 Red. masses --      1.0986                 1.0947                 1.0967
 Frc consts  --      1.4819                 1.4816                 1.4976
 IR Inten    --      5.8598                10.0711                19.2996

                    115                    116                    117
                      A                      A                      A
 Frequencies --   1528.5652              1533.5049              1538.6225
 Red. masses --      1.4941                 1.3765                 1.7959
 Frc consts  --      2.0568                 1.9072                 2.5049
 IR Inten    --     64.4001                70.6084                 4.4049

                    118                    119                    120
                      A                      A                      A
 Frequencies --   1546.6970              1554.1795              1586.6286
 Red. masses --      2.6799                 2.2998                 3.9213
 Frc consts  --      3.7773                 3.2729                 5.8161
 IR Inten    --     69.3573                29.7879                10.3452

                    121                    122                    123
                      A                      A                      A
 Frequencies --   1588.7628              1659.7999              1665.5264
 Red. masses --      3.1695                 3.8419                 5.6090
 Frc consts  --      4.7136                 6.2361                 9.1673
 IR Inten    --    228.3591               204.5669                65.1825

                    124                    125                    126
                      A                      A                      A
 Frequencies --   1696.4068              1699.7929              1707.1846
 Red. masses --      5.3823                 5.6030                 6.4338
 Frc consts  --      9.1259                 9.5381                11.0479
 IR Inten    --      8.8512                91.0205                68.1398

                    127                    128                    129
                      A                      A                      A
 Frequencies --   1714.0701              1746.4697              3062.9987
 Red. masses --      6.7813                 4.0892                 1.0679
 Frc consts  --     11.7387                 7.3487                 5.9028
 IR Inten    --    103.5422              1186.4281                23.4368

                    130                    131                    132
                      A                      A                      A
 Frequencies --   3071.3408              3081.9862              3082.2232
 Red. masses --      1.0701                 1.0692                 1.0781
 Frc consts  --      5.9477                 5.9836                 6.0343
 IR Inten    --     15.9468                47.7639                 6.5458

                    133                    134                    135
                      A                      A                      A
 Frequencies --   3094.5881              3122.3177              3137.6132
 Red. masses --      1.0610                 1.0865                 1.0974
 Frc consts  --      5.9867                 6.2406                 6.3655
 IR Inten    --     16.3701                21.3078                23.5012

                    136                    137                    138
                      A                      A                      A
 Frequencies --   3138.7654              3142.6142              3145.7617
 Red. masses --      1.0968                 1.1003                 1.1041
 Frc consts  --      6.3663                 6.4025                 6.4376
 IR Inten    --     23.2643                24.2756                38.5321

                    139                    140                    141
                      A                      A                      A
 Frequencies --   3175.7990              3224.4189              3227.1167
 Red. masses --      1.0894                 1.0886                 1.0901
 Frc consts  --      6.4733                 6.6683                 6.6886
 IR Inten    --   1187.4787                 3.8813                 1.5539

                    142                    143                    144
                      A                      A                      A
 Frequencies --   3227.9337              3239.1671              3242.4573
 Red. masses --      1.0894                 1.0891                 1.0937
 Frc consts  --      6.6880                 6.7325                 6.7745
 IR Inten    --      1.5534                 0.1976                 8.7963

                    145                    146                    147
                      A                      A                      A
 Frequencies --   3244.0380              3244.9993              3246.4772
 Red. masses --      1.0889                 1.0977                 1.0898
 Frc consts  --      6.7519                 6.8102                 6.7671
 IR Inten    --     10.2468                 4.1592                 3.3334

                    148                    149                    150
                      A                      A                      A
 Frequencies --   3254.5729              3255.0023              3259.0687
 Red. masses --      1.0965                 1.0957                 1.0983
 Frc consts  --      6.8429                 6.8398                 6.8732
 IR Inten    --      9.9974                 4.3491                 0.2302

                    151                    152                    153
                      A                      A                      A
 Frequencies --   3262.5087              3616.3704              3619.5793
 Red. masses --      1.0983                 1.0781                 1.0770
 Frc consts  --      6.8876                 8.3071                 8.3138
 IR Inten    --      7.5801               150.7747                56.8153

 - Thermochemistry -
 -------------------
 Temperature   298.150 Kelvin.  Pressure   1.00000 Atm.
 Atom     1 has atomic number  6 and mass  12.00000

 Molecular mass:   369.20792 amu.
 Principal axes and moments of inertia in atomic units:
                           1         2         3
     Eigenvalues --  8940.528449958.62333**********
           X            0.99823  -0.05927  -0.00462
           Y            0.05926   0.99824  -0.00128
           Z            0.00469   0.00101   0.99999
 This molecule is an asymmetric top.
 Rotational symmetry number  1.
 Warning -- assumption of classical behavior for rotation
           may cause significant error
 Rotational temperatures (Kelvin)      0.00969     0.00870     0.00543
 Rotational constants (GHZ):           0.20186     0.18122     0.11317
 Zero-point vibrational energy    1200237.9 (Joules/Mol)
                                  286.86375 (Kcal/Mol)
 Warning -- explicit consideration of  37 degrees of freedom as
           vibrations may cause significant error
 Vibrational temperatures:     18.03    55.08    63.69    84.41   106.03
          (Kelvin)            125.06   173.53   188.99   211.83   253.58
                              267.08   283.86   330.09   348.74   418.85
                              439.97   463.73   492.68   501.72   552.03
                              573.30   585.70   623.44   641.82   662.88
                              682.21   691.13   702.55   712.73   759.41
                              765.61   771.24   784.93   805.75   811.61
                              840.77   859.95   896.37   917.84   985.79
                              991.61  1023.18  1081.29  1096.32  1100.89
                             1130.10  1133.70  1148.44  1151.86  1156.67
                             1169.85  1216.16  1221.66  1255.11  1280.24
                             1287.83  1288.68  1309.71  1327.25  1353.77
                             1363.51  1389.96  1420.25  1421.15  1426.59
                             1456.00  1460.93  1468.71  1475.34  1483.82
                             1490.75  1525.84  1548.11  1549.78  1553.21
                             1609.28  1629.99  1633.03  1660.97  1682.53
                             1688.77  1690.06  1694.60  1699.31  1710.02
                             1727.21  1797.75  1803.67  1814.65  1840.71
                             1853.68  1859.85  1876.95  1884.94  1901.27
                             1910.93  1921.35  1946.45  1969.03  1981.62
                             1996.10  2006.09  2025.53  2026.60  2032.79
                             2054.04  2068.36  2097.72  2111.16  2124.62
                             2157.45  2176.92  2180.67  2190.45  2199.26
                             2206.37  2213.73  2225.35  2236.12  2282.80
                             2285.88  2388.08  2396.32  2440.75  2445.62
                             2456.26  2466.16  2512.78  4406.97  4418.97
                             4434.29  4434.63  4452.42  4492.32  4514.33
                             4515.98  4521.52  4526.05  4569.27  4639.22
                             4643.10  4644.28  4660.44  4665.17  4667.45
                             4668.83  4670.96  4682.60  4683.22  4689.07
                             4694.02  5203.15  5207.77

 Zero-point correction=                           0.457146 (Hartree/Particle)
 Thermal correction to Energy=                    0.478784
 Thermal correction to Enthalpy=                  0.479728
 Thermal correction to Gibbs Free Energy=         0.406016
 Sum of electronic and zero-point Energies=          -1147.577240
 Sum of electronic and thermal Energies=             -1147.555603
 Sum of electronic and thermal Enthalpies=           -1147.554659
 Sum of electronic and thermal Free Energies=        -1147.628371

                     E (Thermal)             CV                S
                      KCal/Mol        Cal/Mol-Kelvin    Cal/Mol-Kelvin
 Total                  300.441             90.572            155.140
 Electronic               0.000              0.000              0.000
 Translational            0.889              2.981             43.612
 Rotational               0.889              2.981             35.605
 Vibrational            298.664             84.610             75.923
 Vibration     1          0.593              1.987              7.563
 Vibration     2          0.594              1.982              5.346
 Vibration     3          0.595              1.980              5.058
 Vibration     4          0.596              1.974              4.502
 Vibration     5          0.599              1.966              4.052
 Vibration     6          0.601              1.958              3.728
 Vibration     7          0.609              1.932              3.091
 Vibration     8          0.612              1.922              2.926
 Vibration     9          0.617              1.906              2.708
 Vibration    10          0.628              1.872              2.368
 Vibration    11          0.632              1.859              2.271
 Vibration    12          0.637              1.844              2.158
 Vibration    13          0.652              1.796              1.883
 Vibration    14          0.659              1.775              1.785
 Vibration    15          0.687              1.690              1.467
 Vibration    16          0.696              1.663              1.385
 Vibration    17          0.707              1.631              1.298
 Vibration    18          0.722              1.591              1.201
 Vibration    19          0.726              1.578              1.172
 Vibration    20          0.753              1.505              1.025
 Vibration    21          0.765              1.473              0.968
 Vibration    22          0.772              1.455              0.937
 Vibration    23          0.794              1.398              0.848
 Vibration    24          0.805              1.370              0.808
 Vibration    25          0.819              1.337              0.764
 Vibration    26          0.831              1.307              0.726
 Vibration    27          0.837              1.294              0.709
 Vibration    28          0.844              1.276              0.688
 Vibration    29          0.851              1.260              0.670
 Vibration    30          0.883              1.188              0.592
 Vibration    31          0.887              1.179              0.582
 Vibration    32          0.891              1.170              0.574
 Vibration    33          0.901              1.149              0.553
 Vibration    34          0.916              1.118              0.524
 Vibration    35          0.920              1.109              0.516
 Vibration    36          0.941              1.065              0.477
 Vibration    37          0.956              1.037              0.454

                           ! Non-Optimized Parameters !
 Normal termination of Gaussian 16 at Mon Dec 18 01:40:34 2023.
