 Gaussian 16, Revision C.01,
 Gaussian 16:  ES64L-G16RevC.01  3-Jul-2019

 ----------------------------------------------------------------------
 # m062x 6-31g(d) scrf=(iefpcm,solvent=benzene) opt=(calcfc,maxcycles=5
 0,maxstep=10) freq=noraman
 ----------------------------------------------------------------------

 ----------
 Structure2
 ----------
 Symbolic Z-matrix:
 Charge =  1 Multiplicity = 1

 SCF Done:  E(RM062X) =  -1148.01303324     A.U. after   14 cycles
 SCF Done:  E(RM062X) =  -1148.02205809     A.U. after   12 cycles
 SCF Done:  E(RM062X) =  -1148.02821262     A.U. after   14 cycles
 SCF Done:  E(RM062X) =  -1148.03006516     A.U. after   14 cycles
 SCF Done:  E(RM062X) =  -1148.03178003     A.U. after   12 cycles
 SCF Done:  E(RM062X) =  -1148.03193573     A.U. after   12 cycles
 SCF Done:  E(RM062X) =  -1148.03399889     A.U. after   12 cycles
 SCF Done:  E(RM062X) =  -1148.03410795     A.U. after   12 cycles
 SCF Done:  E(RM062X) =  -1148.03432383     A.U. after   11 cycles
 SCF Done:  E(RM062X) =  -1148.03429550     A.U. after   11 cycles
 SCF Done:  E(RM062X) =  -1148.03434015     A.U. after   12 cycles
 SCF Done:  E(RM062X) =  -1148.03438860     A.U. after   10 cycles
 SCF Done:  E(RM062X) =  -1148.03438989     A.U. after    9 cycles
 SCF Done:  E(RM062X) =  -1148.03439228     A.U. after    8 cycles
 SCF Done:  E(RM062X) =  -1148.03439187     A.U. after    6 cycles
 SCF Done:  E(RM062X) =  -1148.03438387     A.U. after   10 cycles
 SCF Done:  E(RM062X) =  -1148.03439183     A.U. after    9 cycles
 SCF Done:  E(RM062X) =  -1148.03439184     A.U. after    7 cycles
 SCF Done:  E(RM062X) =  -1148.03439187     A.U. after    6 cycles
 Optimization completed.
    -- Stationary point found.
 Normal termination of Gaussian 16 at Thu Dec 14 19:27:32 2023.

 --------------------------------------------------------------------
 #N Geom=AllCheck Guess=TCheck SCRF=Check GenChk RM062X/6-31G(d) Freq
 --------------------------------------------------------------------

 Structure from the checkpoint file:  "johnston_OPLS3e_1_opt_hess.chk"
 ----------
 Structure2
 ----------
 Charge =  1 Multiplicity = 1

                         Standard orientation:
 ---------------------------------------------------------------------
 Center     Atomic      Atomic             Coordinates (Angstroms)
 Number     Number       Type             X           Y           Z
 ---------------------------------------------------------------------
      1          6           0        2.371645   -1.206564   -0.435914
      2          6           0        2.722601   -0.389999    0.823273
      3          6           0        3.585502    0.823538    0.451218
      4          6           0        4.853155    0.397642   -0.291036
      5          6           0        4.502156   -0.411948   -1.539169
      6          6           0        3.645439   -1.625562   -1.177079
      7          1           0        1.764846   -0.589073   -1.106086
      8          7           0        1.611786   -2.409329   -0.101078
      9          1           0        3.318223   -1.056081    1.461673
     10          7           0        1.548342   -0.042724    1.638437
     11          1           0        3.833766    1.368996    1.368186
     12          1           0        2.996221    1.498403   -0.180574
     13          1           0        5.438651    1.281055   -0.561822
     14          1           0        5.482110   -0.210993    0.372350
     15          1           0        3.950827    0.223054   -2.244544
     16          1           0        5.408956   -0.745617   -2.051640
     17          1           0        4.225926   -2.298791   -0.528873
     18          1           0        3.367192   -2.192085   -2.071216
     19          1           0        2.148780   -3.244247    0.102851
     20          1           0        1.741422   -0.104056    2.630414
     21          7           0       -0.519310   -1.492020   -0.259156
     22          6           0        0.286791   -2.537373   -0.031236
     23          6           0       -0.304125   -3.811540    0.261065
     24          6           0       -1.653460   -3.932795    0.306609
     25          1           0       -2.104101   -4.896051    0.527640
     26          7           0        0.429364    1.215308    0.051146
     27          6           0        0.735950    1.032264    1.321959
     28          6           0        0.222518    1.859204    2.370901
     29          6           0       -0.589336    2.901724    2.042409
     30          1           0       -0.994059    3.551781    2.813320
     31          6           0       -0.902935    3.161810    0.677912
     32          6           0       -0.358399    2.283561   -0.292070
     33          6           0       -0.661092    2.494680   -1.658225
     34          6           0       -1.472070    3.541090   -2.032606
     35          6           0       -2.010874    4.420393   -1.066525
     36          6           0       -1.729314    4.232776    0.265709
     37          1           0       -0.234466    1.816243   -2.391186
     38          1           0       -1.697742    3.698125   -3.082540
     39          1           0       -2.644867    5.242260   -1.381184
     40          1           0       -2.136194    4.900763    1.019968
     41          6           0       -2.509241   -2.811362    0.064672
     42          6           0       -1.905056   -1.572893   -0.221685
     43          6           0       -2.684281   -0.433048   -0.463827
     44          6           0       -4.060231   -0.543704   -0.416004
     45          6           0       -4.682495   -1.772627   -0.130986
     46          6           0       -3.915170   -2.892673    0.105092
     47          1           0       -2.208905    0.515196   -0.693718
     48          1           0       -4.667960    0.335112   -0.603828
     49          1           0       -5.764345   -1.835122   -0.098930
     50          1           0       -4.377791   -3.850097    0.324767
     51          1           0        0.493187    1.653810    3.401249
     52          1           0        0.353882   -4.654514    0.436749
     53          1           0       -0.110914   -0.546271   -0.375205
 ---------------------------------------------------------------------

 SCF Done:  E(RM062X) =  -1148.03439187     A.U. after    1 cycles

 The electronic state is 1-A.
 Alpha  occ. eigenvalues --  -14.89072 -14.87225 -14.83004 -14.80875 -10.73566
 Alpha  occ. eigenvalues --  -10.68238 -10.67162 -10.65180 -10.64559 -10.64392
 Alpha  occ. eigenvalues --  -10.63598 -10.63425 -10.62858 -10.61828 -10.61522
 Alpha  occ. eigenvalues --  -10.61420 -10.61246 -10.60759 -10.60585 -10.60537
 Alpha  occ. eigenvalues --  -10.60024 -10.59780 -10.59775 -10.59301 -10.59162
 Alpha  occ. eigenvalues --  -10.58633 -10.58589 -10.58264  -1.19744  -1.13823
 Alpha  occ. eigenvalues --   -1.11859  -1.06810  -1.02297  -0.99737  -0.99073
 Alpha  occ. eigenvalues --   -0.97541  -0.95396  -0.92163  -0.90508  -0.89932
 Alpha  occ. eigenvalues --   -0.88500  -0.87995  -0.86757  -0.81109  -0.80051
 Alpha  occ. eigenvalues --   -0.78179  -0.77135  -0.76696  -0.75550  -0.73505
 Alpha  occ. eigenvalues --   -0.72847  -0.71421  -0.68941  -0.68755  -0.67335
 Alpha  occ. eigenvalues --   -0.66790  -0.64189  -0.63522  -0.62607  -0.61670
 Alpha  occ. eigenvalues --   -0.60957  -0.60244  -0.59247  -0.58693  -0.57320
 Alpha  occ. eigenvalues --   -0.56501  -0.56316  -0.56266  -0.55598  -0.54899
 Alpha  occ. eigenvalues --   -0.54782  -0.53896  -0.53405  -0.52467  -0.52284
 Alpha  occ. eigenvalues --   -0.51482  -0.50940  -0.50440  -0.49636  -0.47649
 Alpha  occ. eigenvalues --   -0.47222  -0.47019  -0.46180  -0.45993  -0.45953
 Alpha  occ. eigenvalues --   -0.45150  -0.44633  -0.43811  -0.43280  -0.42726
 Alpha  occ. eigenvalues --   -0.41228  -0.40847  -0.39042  -0.38011  -0.35099
 Alpha  occ. eigenvalues --   -0.33517  -0.32979  -0.31177
 Alpha virt. eigenvalues --   -0.08891  -0.06369  -0.03795  -0.02150  -0.00915
 Alpha virt. eigenvalues --    0.01149   0.05551   0.07273   0.07475   0.07832
 Alpha virt. eigenvalues --    0.09180   0.09287   0.09808   0.10806   0.11252

 Mulliken charges:
               1
     1  C   -0.028333
     2  C    0.021086
     3  C   -0.305551
     4  C   -0.310962
     5  C   -0.309130
     6  C   -0.321446
     7  H    0.203386
     8  N   -0.681268
     9  H    0.168446
    10  N   -0.683637
    11  H    0.173552
    12  H    0.182560
    13  H    0.182764
    14  H    0.159349
    15  H    0.167857
    16  H    0.183779
    17  H    0.161728
    18  H    0.189424
    19  H    0.390687
    20  H    0.367073
    21  N   -0.834674
    22  C    0.696034
    23  C   -0.243709
    24  C   -0.112038
    25  H    0.228436
    26  N   -0.662032
    27  C    0.507884
    28  C   -0.218802
    29  C   -0.148718
    30  H    0.207507
    31  C    0.083670
    32  C    0.222096
    33  C   -0.193561
    34  C   -0.167150
    35  C   -0.178262
    36  C   -0.200608
    37  H    0.178668
    38  H    0.192324
    39  H    0.191306
    40  H    0.191481
    41  C    0.062626
    42  C    0.312401
    43  C   -0.163439
    44  C   -0.176815
    45  C   -0.164934
    46  C   -0.205227
    47  H    0.203586
    48  H    0.206557
    49  H    0.203764
    50  H    0.204758
    51  H    0.198626
    52  H    0.224035
    53  H    0.442845
 Sum of Mulliken charges =   1.00000

 Dipole moment (field-independent basis, Debye):
    X=              0.6867    Y=             -5.3814    Z=              2.1370  Tot=              5.8307
 Quadrupole moment (field-independent basis, Debye-Ang):
   XX=           -114.0400   YY=           -110.0638   ZZ=           -145.9704
   XY=             -7.2012   XZ=              3.2232   YZ=             -0.7353

  Exact polarizability:     375.444     -61.770     326.799      19.118     -27.217     235.494
 Approx polarizability:     388.306     -79.592     359.591      26.042     -38.393     293.789

                      1                      2                      3
                      A                      A                      A
 Frequencies --     11.5226                38.3683                44.5834
 Red. masses --      4.6777                 5.2686                 4.7412
 Frc consts  --      0.0004                 0.0046                 0.0056
 IR Inten    --      1.6733                 0.0353                 0.4442

                      4                      5                      6
                      A                      A                      A
 Frequencies --     58.1103                73.5928                86.9146
 Red. masses --      4.4025                 4.6830                 4.3320
 Frc consts  --      0.0088                 0.0149                 0.0193
 IR Inten    --      0.9324                 3.3321                 0.8741

                      7                      8                      9
                      A                      A                      A
 Frequencies --    119.7822               130.7664               146.4976
 Red. masses --      3.7437                 4.5223                 3.8731
 Frc consts  --      0.0316                 0.0456                 0.0490
 IR Inten    --      0.3552                 2.9641                 1.1734

                     10                     11                     12
                      A                      A                      A
 Frequencies --    176.4452               184.8035               196.6426
 Red. masses --      4.0539                 4.3860                 3.9208
 Frc consts  --      0.0744                 0.0883                 0.0893
 IR Inten    --      4.8145                15.9060                 2.1125

                     13                     14                     15
                      A                      A                      A
 Frequencies --    229.2690               241.6914               290.8427
 Red. masses --      3.7800                 4.4937                 4.6245
 Frc consts  --      0.1171                 0.1547                 0.2305
 IR Inten    --      0.4895                 6.3955                 0.0223

                     16                     17                     18
                      A                      A                      A
 Frequencies --    305.4433               321.9751               341.8727
 Red. masses --      4.8507                 3.0512                 2.0271
 Frc consts  --      0.2666                 0.1864                 0.1396
 IR Inten    --      5.1880                 3.5909                 0.5484

                     19                     20                     21
                      A                      A                      A
 Frequencies --    348.4064               383.5535               398.1477
 Red. masses --      3.7962                 3.0894                 3.5105
 Frc consts  --      0.2715                 0.2678                 0.3279
 IR Inten    --      2.2819                 6.1757                 0.0503

                     22                     23                     24
                      A                      A                      A
 Frequencies --    407.0473               433.0724               445.7227
 Red. masses --      3.6382                 3.8105                 3.6093
 Frc consts  --      0.3552                 0.4211                 0.4225
 IR Inten    --      3.8812                 1.6476                 2.7764

                     25                     26                     27
                      A                      A                      A
 Frequencies --    460.3223               474.0032               480.4716
 Red. masses --      3.1628                 4.1884                 3.4475
 Frc consts  --      0.3949                 0.5545                 0.4689
 IR Inten    --      0.8991                 5.3730                 5.8324

                     28                     29                     30
                      A                      A                      A
 Frequencies --    488.5478               495.1705               527.7754
 Red. masses --      3.0770                 2.7324                 4.7748
 Frc consts  --      0.4327                 0.3947                 0.7836
 IR Inten    --      4.9726                 4.2505                 7.5526

                     31                     32                     33
                      A                      A                      A
 Frequencies --    531.8391               534.7565               543.3526
 Red. masses --      4.3420                 2.6334                 2.8705
 Frc consts  --      0.7236                 0.4437                 0.4993
 IR Inten    --     11.4283                33.1491                28.7694

                     34                     35                     36
                      A                      A                      A
 Frequencies --    559.6094               561.5498               582.5603
 Red. masses --      2.3866                 2.2274                 2.3057
 Frc consts  --      0.4404                 0.4138                 0.4610
 IR Inten    --     12.7605                23.5324                67.5902

                     37                     38                     39
                      A                      A                      A
 Frequencies --    596.3439               622.6052               637.9334
 Red. masses --      2.4129                 5.5484                 5.5408
 Frc consts  --      0.5056                 1.2672                 1.3285
 IR Inten    --     31.0059                18.4841                18.5626

                     40                     41                     42
                      A                      A                      A
 Frequencies --    684.4277               688.8349               710.9686
 Red. masses --      3.0494                 3.2408                 3.3033
 Frc consts  --      0.8416                 0.9060                 0.9838
 IR Inten    --     14.4152                 1.9943                 0.8223

                     43                     44                     45
                      A                      A                      A
 Frequencies --    751.3177               762.0846               765.3285
 Red. masses --      2.8446                 4.9662                 4.9809
 Frc consts  --      0.9461                 1.6993                 1.7189
 IR Inten    --      3.0839                 3.1393                 4.7030

                     46                     47                     48
                      A                      A                      A
 Frequencies --    785.5868               788.0798               798.2653
 Red. masses --      1.3115                 1.4735                 3.9804
 Frc consts  --      0.4769                 0.5392                 1.4944
 IR Inten    --     26.5513                42.6207                11.5253

                     49                     50                     51
                      A                      A                      A
 Frequencies --    800.6073               803.7690               812.8866
 Red. masses --      4.5219                 4.6086                 1.8625
 Frc consts  --      1.7077                 1.7542                 0.7251
 IR Inten    --      2.7558                 6.7555                 4.4064

                     52                     53                     54
                      A                      A                      A
 Frequencies --    844.7097               846.5768               872.4346
 Red. masses --      1.7865                 1.4678                 1.8337
 Frc consts  --      0.7511                 0.6198                 0.8223
 IR Inten    --     94.1054                61.0397                 6.8072

                     55                     56                     57
                      A                      A                      A
 Frequencies --    889.6557               895.5694               896.6421
 Red. masses --      1.7068                 1.4326                 1.4839
 Frc consts  --      0.7959                 0.6770                 0.7029
 IR Inten    --     11.9152                15.5797                 4.0916

                     58                     59                     60
                      A                      A                      A
 Frequencies --    910.3431               922.2570               940.7708
 Red. masses --      2.2456                 1.9402                 2.9649
 Frc consts  --      1.0964                 0.9723                 1.5460
 IR Inten    --      9.8804                73.1815                26.6110

                     61                     62                     63
                      A                      A                      A
 Frequencies --    947.2930               966.1902               987.1771
 Red. masses --      2.3076                 1.9542                 2.2987
 Frc consts  --      1.2200                 1.0749                 1.3198
 IR Inten    --     10.3230                 8.8653                 5.1367

                     64                     65                     66
                      A                      A                      A
 Frequencies --    988.4949               991.5821              1011.9087
 Red. masses --      1.3361                 1.3257                 3.0312
 Frc consts  --      0.7692                 0.7680                 1.8287
 IR Inten    --      1.3276                 2.7149                 3.2499

                     67                     68                     69
                      A                      A                      A
 Frequencies --   1016.0873              1020.6208              1025.4733
 Red. masses --      1.3540                 3.1649                 1.3017
 Frc consts  --      0.8236                 1.9424                 0.8065
 IR Inten    --      1.8969                 7.2564                 0.0467

                     70                     71                     72
                      A                      A                      A
 Frequencies --   1030.7086              1035.6967              1060.3755
 Red. masses --      1.3192                 1.3218                 2.0214
 Frc consts  --      0.8257                 0.8354                 1.3391
 IR Inten    --      0.8276                 0.6045                 1.7038

                     73                     74                     75
                      A                      A                      A
 Frequencies --   1076.0091              1077.0308              1079.4565
 Red. masses --      1.9106                 1.4000                 1.7737
 Frc consts  --      1.3033                 0.9569                 1.2177
 IR Inten    --      4.5202                 3.0228                 1.0969

                     76                     77                     78
                      A                      A                      A
 Frequencies --   1118.4469              1132.6773              1134.6027
 Red. masses --      2.2278                 2.8251                 3.1912
 Frc consts  --      1.6419                 2.1355                 2.4204
 IR Inten    --     21.5966                26.2847                10.8825

                     79                     80                     81
                      A                      A                      A
 Frequencies --   1154.6095              1169.2170              1173.7632
 Red. masses --      1.4935                 1.6645                 2.1230
 Frc consts  --      1.1731                 1.3407                 1.7233
 IR Inten    --     18.0160                 9.1859                18.4590

                     82                     83                     84
                      A                      A                      A
 Frequencies --   1174.6442              1177.6548              1181.2309
 Red. masses --      1.6903                 1.4431                 1.1657
 Frc consts  --      1.3741                 1.1792                 0.9583
 IR Inten    --     15.1475                 3.8834                 6.2395

                     85                     86                     87
                      A                      A                      A
 Frequencies --   1188.2094              1199.5225              1249.4511
 Red. masses --      1.1795                 1.1549                 1.6864
 Frc consts  --      0.9812                 0.9791                 1.5512
 IR Inten    --     18.0313                15.8290                 5.0232

                     88                     89                     90
                      A                      A                      A
 Frequencies --   1253.6073              1260.9871              1279.7476
 Red. masses --      1.7221                 2.0966                 1.3570
 Frc consts  --      1.5946                 1.9642                 1.3094
 IR Inten    --      1.0366                23.3420                 4.8068

                     91                     92                     93
                      A                      A                      A
 Frequencies --   1288.5028              1292.5913              1305.0273
 Red. masses --      1.6664                 1.3563                 1.5011
 Frc consts  --      1.6301                 1.3351                 1.5063
 IR Inten    --     32.2180                 2.8899                23.4925

                     94                     95                     96
                      A                      A                      A
 Frequencies --   1310.2877              1321.4688              1328.2215
 Red. masses --      2.1449                 1.3914                 2.0686
 Frc consts  --      2.1697                 1.4316                 2.1502
 IR Inten    --     88.1330                10.3566                12.6588

                     97                     98                     99
                      A                      A                      A
 Frequencies --   1335.7702              1353.1428              1368.3363
 Red. masses --      1.5738                 1.7208                 1.9710
 Frc consts  --      1.6545                 1.8564                 2.1743
 IR Inten    --     13.1863                10.5350                27.8352

                    100                    101                    102
                      A                      A                      A
 Frequencies --   1377.8730              1387.6101              1394.6136
 Red. masses --      1.3888                 1.4676                 1.5822
 Frc consts  --      1.5535                 1.6649                 1.8131
 IR Inten    --      6.0974                 6.8724                29.6057

                    103                    104                    105
                      A                      A                      A
 Frequencies --   1407.7827              1408.5587              1412.7961
 Red. masses --      5.5642                 2.8548                 1.5488
 Frc consts  --      6.4972                 3.3371                 1.8214
 IR Inten    --     10.0688                89.5492                12.9222

                    106                    107                    108
                      A                      A                      A
 Frequencies --   1427.9167              1437.6872              1458.4625
 Red. masses --      1.7651                 1.5571                 3.2163
 Frc consts  --      2.1204                 1.8962                 4.0308
 IR Inten    --      5.5208                47.8716                 3.6859

                    109                    110                    111
                      A                      A                      A
 Frequencies --   1467.0958              1476.9003              1499.6047
 Red. masses --      1.6170                 2.0459                 2.8251
 Frc consts  --      2.0506                 2.6293                 3.7431
 IR Inten    --     22.1021                37.4624                 2.1108

                    112                    113                    114
                      A                      A                      A
 Frequencies --   1512.8885              1515.5032              1522.4040
 Red. masses --      1.0983                 1.0953                 1.0953
 Frc consts  --      1.4811                 1.4822                 1.4957
 IR Inten    --      6.2743                 9.5505                18.5692

                    115                    116                    117
                      A                      A                      A
 Frequencies --   1528.0615              1533.7287              1539.1084
 Red. masses --      1.5138                 1.3276                 1.8692
 Frc consts  --      2.0825                 1.8400                 2.6088
 IR Inten    --     65.5499                63.4985                 3.8831

                    118                    119                    120
                      A                      A                      A
 Frequencies --   1547.0085              1553.7154              1586.5528
 Red. masses --      2.6276                 2.3274                 3.9118
 Frc consts  --      3.7051                 3.3102                 5.8015
 IR Inten    --     75.2808                24.4787                11.3527

                    121                    122                    123
                      A                      A                      A
 Frequencies --   1588.9036              1659.7531              1665.6204
 Red. masses --      3.1373                 3.8325                 5.6456
 Frc consts  --      4.6665                 6.2205                 9.2282
 IR Inten    --    230.0764               205.8928                63.0821

                    124                    125                    126
                      A                      A                      A
 Frequencies --   1696.5183              1700.0060              1707.1360
 Red. masses --      5.3500                 5.6510                 6.4332
 Frc consts  --      9.0724                 9.6223                11.0462
 IR Inten    --      7.7327                90.1097                67.9218

                    127                    128                    129
                      A                      A                      A
 Frequencies --   1714.0373              1746.3666              3063.0928
 Red. masses --      6.7868                 4.1206                 1.0679
 Frc consts  --     11.7477                 7.4043                 5.9033
 IR Inten    --    105.3354              1192.0833                23.0815

                    130                    131                    132
                      A                      A                      A
 Frequencies --   3071.3108              3081.9396              3082.9684
 Red. masses --      1.0700                 1.0647                 1.0825
 Frc consts  --      5.9468                 5.9585                 6.0621
 IR Inten    --     16.4781                34.9004                18.2523

                    133                    134                    135
                      A                      A                      A
 Frequencies --   3094.5974              3122.7213              3137.5306
 Red. masses --      1.0613                 1.0865                 1.0974
 Frc consts  --      5.9880                 6.2425                 6.3650
 IR Inten    --     16.9408                18.9362                24.4014

                    136                    137                    138
                      A                      A                      A
 Frequencies --   3138.6608              3142.6039              3145.6771
 Red. masses --      1.0967                 1.1004                 1.1040
 Frc consts  --      6.3656                 6.4030                 6.4366
 IR Inten    --     22.2937                23.7115                39.1056

                    139                    140                    141
                      A                      A                      A
 Frequencies --   3180.7122              3224.6263              3227.1175
 Red. masses --      1.0892                 1.0885                 1.0896
 Frc consts  --      6.4923                 6.6689                 6.6856
 IR Inten    --   1174.8820                 3.8493                 2.6184

                    142                    143                    144
                      A                      A                      A
 Frequencies --   3227.9075              3238.8596              3242.4251
 Red. masses --      1.0898                 1.0891                 1.0937
 Frc consts  --      6.6903                 6.7311                 6.7748
 IR Inten    --      0.4169                 0.2468                 9.0069

                    145                    146                    147
                      A                      A                      A
 Frequencies --   3243.8735              3244.4560              3246.1419
 Red. masses --      1.0888                 1.0977                 1.0898
 Frc consts  --      6.7506                 6.8082                 6.7662
 IR Inten    --      9.1087                 4.3311                 3.7771

                    148                    149                    150
                      A                      A                      A
 Frequencies --   3254.5356              3255.1008              3257.6922
 Red. masses --      1.0972                 1.0949                 1.0987
 Frc consts  --      6.8470                 6.8354                 6.8701
 IR Inten    --     10.8191                 3.7403                 0.1660

                    151                    152                    153
                      A                      A                      A
 Frequencies --   3262.2995              3614.3683              3621.0299
 Red. masses --      1.0983                 1.0782                 1.0770
 Frc consts  --      6.8868                 8.2990                 8.3203
 IR Inten    --      7.6755               151.4017                55.1762

 - Thermochemistry -
 -------------------
 Temperature   298.150 Kelvin.  Pressure   1.00000 Atm.
 Atom     1 has atomic number  6 and mass  12.00000

 Molecular mass:   369.20792 amu.
 Principal axes and moments of inertia in atomic units:
                           1         2         3
     Eigenvalues --  8945.748859964.28286**********
           X            0.99829  -0.05824  -0.00464
           Y            0.05823   0.99830  -0.00132
           Z            0.00471   0.00105   0.99999
 This molecule is an asymmetric top.
 Rotational symmetry number  1.
 Warning -- assumption of classical behavior for rotation
           may cause significant error
 Rotational temperatures (Kelvin)      0.00968     0.00869     0.00543
 Rotational constants (GHZ):           0.20174     0.18112     0.11310
 Zero-point vibrational energy    1200125.5 (Joules/Mol)
                                  286.83688 (Kcal/Mol)
 Warning -- explicit consideration of  37 degrees of freedom as
           vibrations may cause significant error
 Vibrational temperatures:     16.58    55.20    64.15    83.61   105.88
          (Kelvin)            125.05   172.34   188.14   210.78   253.87
                              265.89   282.92   329.87   347.74   418.46
                              439.46   463.25   491.88   501.28   551.85
                              572.85   585.65   623.09   641.30   662.30
                              681.98   691.29   702.91   712.44   759.35
                              765.20   769.40   781.76   805.15   807.94
                              838.17   858.01   895.79   917.84   984.74
                              991.08  1022.93  1080.98  1096.47  1101.14
                             1130.28  1133.87  1148.53  1151.90  1156.44
                             1169.56  1215.35  1218.04  1255.24  1280.02
                             1288.52  1290.07  1309.78  1326.92  1353.56
                             1362.94  1390.13  1420.33  1422.22  1426.67
                             1455.91  1461.92  1468.45  1475.43  1482.96
                             1490.14  1525.64  1548.14  1549.61  1553.10
                             1609.20  1629.67  1632.44  1661.23  1682.24
                             1688.78  1690.05  1694.38  1699.53  1709.57
                             1725.85  1797.68  1803.66  1814.28  1841.27
                             1853.87  1859.75  1877.64  1885.21  1901.30
                             1911.01  1921.88  1946.87  1968.73  1982.45
                             1996.46  2006.54  2025.49  2026.60  2032.70
                             2054.45  2068.51  2098.40  2110.82  2124.93
                             2157.60  2176.71  2180.47  2190.40  2198.54
                             2206.69  2214.43  2225.80  2235.45  2282.70
                             2286.08  2388.01  2396.46  2440.91  2445.93
                             2456.19  2466.12  2512.63  4407.11  4418.93
                             4434.22  4435.70  4452.44  4492.90  4514.21
                             4515.83  4521.51  4525.93  4576.34  4639.52
                             4643.10  4644.24  4660.00  4665.13  4667.21
                             4668.05  4670.47  4682.55  4683.36  4687.09
                             4693.72  5200.27  5209.85

 Zero-point correction=                           0.457104 (Hartree/Particle)
 Thermal correction to Energy=                    0.478761
 Thermal correction to Enthalpy=                  0.479706
 Thermal correction to Gibbs Free Energy=         0.405871
 Sum of electronic and zero-point Energies=          -1147.577288
 Sum of electronic and thermal Energies=             -1147.555630
 Sum of electronic and thermal Enthalpies=           -1147.554686
 Sum of electronic and thermal Free Energies=        -1147.628521

                     E (Thermal)             CV                S
                      KCal/Mol        Cal/Mol-Kelvin    Cal/Mol-Kelvin
 Total                  300.427             90.612            155.399
 Electronic               0.000              0.000              0.000
 Translational            0.889              2.981             43.612
 Rotational               0.889              2.981             35.607
 Vibrational            298.650             84.651             76.180
 Vibration     1          0.593              1.987              7.729
 Vibration     2          0.594              1.982              5.342
 Vibration     3          0.595              1.980              5.044
 Vibration     4          0.596              1.974              4.520
 Vibration     5          0.599              1.966              4.055
 Vibration     6          0.601              1.958              3.728
 Vibration     7          0.609              1.933              3.104
 Vibration     8          0.612              1.923              2.935
 Vibration     9          0.617              1.906              2.717
 Vibration    10          0.628              1.871              2.366
 Vibration    11          0.631              1.861              2.279
 Vibration    12          0.636              1.845              2.164
 Vibration    13          0.652              1.796              1.885
 Vibration    14          0.658              1.776              1.790
 Vibration    15          0.687              1.691              1.469
 Vibration    16          0.696              1.663              1.387
 Vibration    17          0.707              1.631              1.300
 Vibration    18          0.721              1.592              1.203
 Vibration    19          0.726              1.579              1.173
 Vibration    20          0.753              1.505              1.025
 Vibration    21          0.764              1.474              0.969
 Vibration    22          0.772              1.455              0.937
 Vibration    23          0.794              1.398              0.849
 Vibration    24          0.805              1.370              0.809
 Vibration    25          0.818              1.338              0.765
 Vibration    26          0.831              1.308              0.726
 Vibration    27          0.837              1.293              0.709
 Vibration    28          0.844              1.275              0.687
 Vibration    29          0.851              1.261              0.670
 Vibration    30          0.883              1.189              0.592
 Vibration    31          0.887              1.180              0.583
 Vibration    32          0.890              1.173              0.577
 Vibration    33          0.898              1.154              0.558
 Vibration    34          0.915              1.119              0.525
 Vibration    35          0.917              1.114              0.521
 Vibration    36          0.939              1.069              0.481
 Vibration    37          0.954              1.040              0.456

                           ! Non-Optimized Parameters !
 Normal termination of Gaussian 16 at Thu Dec 14 19:48:02 2023.
