 Gaussian 16, Revision C.01,
 Gaussian 16:  ES64L-G16RevC.01  3-Jul-2019

 ----------------------------------------------------------------------
 # m062x 6-31g(d) scrf=(iefpcm,solvent=benzene) opt=(calcfc,maxcycles=5
 0,maxstep=10) freq=noraman
 ----------------------------------------------------------------------

 ----------
 Structure3
 ----------
 Symbolic Z-matrix:
 Charge =  0 Multiplicity = 1

 SCF Done:  E(RM062X) =  -2423.11251579     A.U. after   13 cycles
 SCF Done:  E(RM062X) =  -2423.12312363     A.U. after   11 cycles
 SCF Done:  E(RM062X) =  -2423.13667929     A.U. after   11 cycles
 SCF Done:  E(RM062X) =  -2423.13906826     A.U. after   12 cycles
 SCF Done:  E(RM062X) =  -2423.14005805     A.U. after   13 cycles
 SCF Done:  E(RM062X) =  -2423.10613195     A.U. after   12 cycles
 SCF Done:  E(RM062X) =  -2423.13889437     A.U. after   12 cycles
 SCF Done:  E(RM062X) =  -2423.14158539     A.U. after    9 cycles
 SCF Done:  E(RM062X) =  -2423.14236411     A.U. after   10 cycles
 SCF Done:  E(RM062X) =  -2423.14235849     A.U. after   13 cycles
 SCF Done:  E(RM062X) =  -2423.14281758     A.U. after    9 cycles
 SCF Done:  E(RM062X) =  -2423.14281915     A.U. after    8 cycles
 SCF Done:  E(RM062X) =  -2423.14282087     A.U. after    9 cycles
 SCF Done:  E(RM062X) =  -2423.14282358     A.U. after   10 cycles
 SCF Done:  E(RM062X) =  -2423.14282505     A.U. after    8 cycles
 SCF Done:  E(RM062X) =  -2423.14282690     A.U. after    8 cycles
 SCF Done:  E(RM062X) =  -2423.14282736     A.U. after    8 cycles
 SCF Done:  E(RM062X) =  -2423.14282716     A.U. after    8 cycles
 SCF Done:  E(RM062X) =  -2423.14282738     A.U. after    8 cycles
 Optimization completed.
    -- Stationary point found.
 Normal termination of Gaussian 16 at Thu Dec 14 19:32:43 2023.

 --------------------------------------------------------------------
 #N Geom=AllCheck Guess=TCheck SCRF=Check GenChk RM062X/6-31G(d) Freq
 --------------------------------------------------------------------

 Structure from the checkpoint file:  "mikami_OPLS3e_1_opt_hess.chk"
 ----------
 Structure3
 ----------
 Charge =  0 Multiplicity = 1

                         Standard orientation:
 ---------------------------------------------------------------------
 Center     Atomic      Atomic             Coordinates (Angstroms)
 Number     Number       Type             X           Y           Z
 ---------------------------------------------------------------------
      1          6           0        0.275986    3.125284   -0.751800
      2          6           0       -0.179714    4.443687   -0.736315
      3          6           0       -0.623916    5.018325    0.449134
      4          6           0       -0.608632    4.272929    1.627814
      5          6           0       -0.156307    2.959050    1.614472
      6          6           0        0.285628    2.375484    0.423566
      7          1           0        0.639082    2.684136   -1.674892
      8          1           0       -0.180395    5.020353   -1.655657
      9          1           0       -0.977180    6.044306    0.459266
     10          1           0       -0.946942    4.716723    2.558533
     11          1           0       -0.139663    2.384798    2.538383
     12          6           0        0.698475    0.915162    0.446235
     13          7           0        1.359820    0.504531   -0.802231
     14          1           0        1.369727    0.746663    1.295587
     15          6           0       -0.522422   -0.012216    0.683063
     16          1           0       -0.925356    0.255194    1.665773
     17          7           0       -1.530943    0.274970   -0.350254
     18          6           0        0.863439   -4.093431    0.730438
     19          6           0        0.205512   -3.607453   -0.394959
     20          6           0       -0.276225   -2.299547   -0.415740
     21          6           0       -0.101481   -1.469388    0.692540
     22          6           0        0.557462   -1.963866    1.820407
     23          6           0        1.037309   -3.268663    1.840694
     24          1           0        1.235942   -5.112583    0.746141
     25          1           0        0.060222   -4.246212   -1.260270
     26          1           0       -0.814838   -1.931796   -1.285528
     27          1           0        0.691719   -1.323561    2.689650
     28          1           0        1.543273   -3.643121    2.724814
     29          1           0        0.978418   -0.310659   -1.281733
     30          1           0       -1.354787    1.114219   -0.906689
     31         16           0        2.988259    0.596711   -0.937107
     32          8           0        3.434221    1.774351   -0.227011
     33          6           0        3.589931   -0.855003    0.033918
     34          8           0        3.342103    0.304188   -2.308414
     35         16           0       -3.130965    0.261568    0.063645
     36          8           0       -3.792771    1.291993   -0.709466
     37          6           0       -3.704620   -1.336181   -0.652893
     38          8           0       -3.290156    0.123835    1.497011
     39          9           0        4.891124   -1.003723   -0.142318
     40          9           0        3.336519   -0.667784    1.325807
     41          9           0        2.952885   -1.941563   -0.382765
     42          9           0       -3.314487   -1.425410   -1.917224
     43          9           0       -3.205352   -2.348728    0.037501
     44          9           0       -5.026001   -1.364725   -0.593333
 ---------------------------------------------------------------------

 SCF Done:  E(RM062X) =  -2423.14282738     A.U. after    1 cycles

 The electronic state is 1-A.
 Alpha  occ. eigenvalues --  -90.18964 -90.18948 -25.32549 -25.32392 -25.32349
 Alpha  occ. eigenvalues --  -25.32289 -25.32264 -25.32184 -19.67413 -19.67172
 Alpha  occ. eigenvalues --  -19.67116 -19.67090 -14.82827 -14.82767 -10.84092
 Alpha  occ. eigenvalues --  -10.83964 -10.63730 -10.63464 -10.58085 -10.57734
 Alpha  occ. eigenvalues --  -10.56974 -10.56904 -10.56699 -10.56676 -10.56557
 Alpha  occ. eigenvalues --  -10.56484 -10.56321 -10.56278 -10.56167 -10.56003
 Alpha  occ. eigenvalues --   -8.50154  -8.50086  -6.42346  -6.42302  -6.42281
 Alpha  occ. eigenvalues --   -6.42235  -6.42214  -6.42167  -1.49804  -1.49779
 Alpha  occ. eigenvalues --   -1.40437  -1.40403  -1.40385  -1.40362  -1.27616
 Alpha  occ. eigenvalues --   -1.27583  -1.16297  -1.16245  -1.09440  -1.06163
 Alpha  occ. eigenvalues --   -0.97909  -0.97486  -0.91827  -0.87993  -0.87005
 Alpha  occ. eigenvalues --   -0.86580  -0.85784  -0.85280  -0.82563  -0.78595
 Alpha  occ. eigenvalues --   -0.77478  -0.75614  -0.72453  -0.72106  -0.71994
 Alpha  occ. eigenvalues --   -0.71957  -0.71592  -0.70617  -0.70173  -0.69489
 Alpha  occ. eigenvalues --   -0.67996  -0.67580  -0.63530  -0.62052  -0.61888
 Alpha  occ. eigenvalues --   -0.61638  -0.60387  -0.59416  -0.59332  -0.59287
 Alpha  occ. eigenvalues --   -0.59093  -0.57741  -0.56788  -0.56601  -0.56135
 Alpha  occ. eigenvalues --   -0.55824  -0.55704  -0.55508  -0.55072  -0.54880
 Alpha  occ. eigenvalues --   -0.54418  -0.53875  -0.53424  -0.53377  -0.52168
 Alpha  occ. eigenvalues --   -0.51556  -0.50607  -0.50408  -0.49926  -0.49771
 Alpha  occ. eigenvalues --   -0.48996  -0.45254  -0.44870  -0.44735  -0.43980
 Alpha  occ. eigenvalues --   -0.43151  -0.43039  -0.42508  -0.41855  -0.41616
 Alpha  occ. eigenvalues --   -0.41286  -0.41127  -0.40776  -0.40057  -0.39785
 Alpha  occ. eigenvalues --   -0.37969  -0.37032  -0.32206  -0.31916  -0.31541
 Alpha  occ. eigenvalues --   -0.30753
 Alpha virt. eigenvalues --    0.00058   0.01130   0.01762   0.02564   0.07308
 Alpha virt. eigenvalues --    0.08789   0.09262   0.09453   0.10620   0.10715
 Alpha virt. eigenvalues --    0.11037   0.11711   0.12218   0.13140   0.13859

 Mulliken charges:
               1
     1  C   -0.204641
     2  C   -0.164023
     3  C   -0.161199
     4  C   -0.167162
     5  C   -0.194925
     6  C    0.113707
     7  H    0.194514
     8  H    0.184577
     9  H    0.182493
    10  H    0.184587
    11  H    0.175482
    12  C   -0.089185
    13  N   -0.739220
    14  H    0.217652
    15  C   -0.091076
    16  H    0.232899
    17  N   -0.761363
    18  C   -0.162249
    19  C   -0.163253
    20  C   -0.226315
    21  C    0.113749
    22  C   -0.202344
    23  C   -0.167407
    24  H    0.183759
    25  H    0.185483
    26  H    0.183711
    27  H    0.176963
    28  H    0.185281
    29  H    0.407817
    30  H    0.409791
    31  S    1.197701
    32  O   -0.533315
    33  C    0.636734
    34  O   -0.524771
    35  S    1.210421
    36  O   -0.529973
    37  C    0.644454
    38  O   -0.530272
    39  F   -0.230238
    40  F   -0.239441
    41  F   -0.236619
    42  F   -0.238568
    43  F   -0.230478
    44  F   -0.233738
 Sum of Mulliken charges =  -0.00000

 Dipole moment (field-independent basis, Debye):
    X=              0.2204    Y=             -2.4620    Z=              1.7843  Tot=              3.0485
 Quadrupole moment (field-independent basis, Debye-Ang):
   XX=           -213.6695   YY=           -163.4023   ZZ=           -178.3872
   XY=             -8.0170   XZ=             11.7138   YZ=              2.2532

  Exact polarizability:     195.669     -36.590     291.689       4.275       0.283     222.093
 Approx polarizability:     209.247     -37.479     304.930       8.088       3.448     300.960

                      1                      2                      3
                      A                      A                      A
 Frequencies --     13.1025                26.5629                30.7764
 Red. masses --     12.0330                 9.5423                 8.6553
 Frc consts  --      0.0012                 0.0040                 0.0048
 IR Inten    --      1.2486                 1.1843                 0.7701

                      4                      5                      6
                      A                      A                      A
 Frequencies --     39.3269                49.1167                51.6017
 Red. masses --     10.0157                 4.7568                 8.1851
 Frc consts  --      0.0091                 0.0068                 0.0128
 IR Inten    --      0.6469                 0.5788                 0.3990

                      7                      8                      9
                      A                      A                      A
 Frequencies --     53.5286                69.8517                74.6708
 Red. masses --      7.4596                11.1946                 8.4309
 Frc consts  --      0.0126                 0.0322                 0.0277
 IR Inten    --      0.6860                 0.3299                 1.1016

                     10                     11                     12
                      A                      A                      A
 Frequencies --     90.3896                98.9590               106.0486
 Red. masses --      8.3422                10.6498                 4.2342
 Frc consts  --      0.0402                 0.0614                 0.0281
 IR Inten    --      0.3994                 3.0263                 0.2010

                     13                     14                     15
                      A                      A                      A
 Frequencies --    118.3737               144.7978               168.8742
 Red. masses --      8.3784                 6.6144                12.6086
 Frc consts  --      0.0692                 0.0817                 0.2119
 IR Inten    --      0.8613                 5.9189                 0.5538

                     16                     17                     18
                      A                      A                      A
 Frequencies --    176.5959               193.3772               204.2334
 Red. masses --      7.3814                12.6271                14.1259
 Frc consts  --      0.1356                 0.2782                 0.3472
 IR Inten    --      3.4847                 4.5203                 1.6569

                     19                     20                     21
                      A                      A                      A
 Frequencies --    218.9362               252.5938               254.9900
 Red. masses --      5.4997                 6.1786                 7.1812
 Frc consts  --      0.1553                 0.2323                 0.2751
 IR Inten    --      1.4694                 5.7493                 5.1373

                     22                     23                     24
                      A                      A                      A
 Frequencies --    260.1710               285.4553               286.8652
 Red. masses --      7.0538                 9.3570                 7.6008
 Frc consts  --      0.2813                 0.4492                 0.3685
 IR Inten    --      7.6673                 4.0021                 0.5656

                     25                     26                     27
                      A                      A                      A
 Frequencies --    318.9552               323.5799               340.9472
 Red. masses --     11.1070                11.7075                 4.2958
 Frc consts  --      0.6657                 0.7222                 0.2942
 IR Inten    --      0.3183                 0.0472                12.7202

                     28                     29                     30
                      A                      A                      A
 Frequencies --    351.9480               375.5233               382.3583
 Red. masses --      6.6364                10.0737                 6.6893
 Frc consts  --      0.4843                 0.8370                 0.5762
 IR Inten    --      6.8491                 5.4427                 8.5440

                     31                     32                     33
                      A                      A                      A
 Frequencies --    414.6943               419.5364               427.9471
 Red. masses --      2.9307                 2.8975                 2.3460
 Frc consts  --      0.2969                 0.3005                 0.2531
 IR Inten    --      4.7316                 6.7074                30.5541

                     34                     35                     36
                      A                      A                      A
 Frequencies --    449.2046               472.3128               497.2572
 Red. masses --      5.4758                 2.3574                 6.5794
 Frc consts  --      0.6510                 0.3098                 0.9585
 IR Inten    --     19.0769                59.1746                 7.8959

                     37                     38                     39
                      A                      A                      A
 Frequencies --    506.5162               518.0719               536.3771
 Red. masses --      6.1464                 3.8077                 6.4714
 Frc consts  --      0.9291                 0.6021                 1.0970
 IR Inten    --    143.8247                20.3646                 6.5407

                     40                     41                     42
                      A                      A                      A
 Frequencies --    553.1466               563.0092               566.4448
 Red. masses --      5.3433                13.0408                12.6290
 Frc consts  --      0.9633                 2.4355                 2.3875
 IR Inten    --     12.8215                14.8491                 1.6954

                     43                     44                     45
                      A                      A                      A
 Frequencies --    569.6692               585.4012               602.5794
 Red. masses --      8.0951                 8.5165                13.0889
 Frc consts  --      1.5478                 1.7196                 2.8002
 IR Inten    --     13.9901                65.7607               124.9781

                     46                     47                     48
                      A                      A                      A
 Frequencies --    621.6972               629.3831               629.7909
 Red. masses --      5.1932                 6.4184                 6.2071
 Frc consts  --      1.1826                 1.4980                 1.4506
 IR Inten    --    113.6643                 2.6537                 6.4745

                     49                     50                     51
                      A                      A                      A
 Frequencies --    661.2856               663.1427               682.1063
 Red. masses --      5.6797                 5.0785                 5.4261
 Frc consts  --      1.4634                 1.3158                 1.4874
 IR Inten    --      5.7181               126.3763                79.2607

                     52                     53                     54
                      A                      A                      A
 Frequencies --    723.0525               725.7044               769.1771
 Red. masses --      1.9182                 1.9893                 1.7413
 Frc consts  --      0.5909                 0.6173                 0.6070
 IR Inten    --     21.5609                26.4370                 6.7694

                     55                     56                     57
                      A                      A                      A
 Frequencies --    784.7720               791.7571               799.7702
 Red. masses --      2.2528                14.3938                 6.1166
 Frc consts  --      0.8174                 5.3163                 2.3051
 IR Inten    --     90.6651                 2.8038                33.8949

                     58                     59                     60
                      A                      A                      A
 Frequencies --    834.9317               870.7558               879.6783
 Red. masses --      5.0565                 3.8388                 1.2477
 Frc consts  --      2.0768                 1.7149                 0.5689
 IR Inten    --     11.5458                21.1215                 0.0731

                     61                     62                     63
                      A                      A                      A
 Frequencies --    883.8899               931.7044               954.4981
 Red. masses --      1.2577                 2.5055                 1.4310
 Frc consts  --      0.5789                 1.2814                 0.7681
 IR Inten    --      0.5971                47.2819                46.5028

                     64                     65                     66
                      A                      A                      A
 Frequencies --    964.2238               978.4101               992.9875
 Red. masses --      1.8718                 3.5913                 2.8936
 Frc consts  --      1.0253                 2.0255                 1.6810
 IR Inten    --      6.1781               209.7020                42.1846

                     67                     68                     69
                      A                      A                      A
 Frequencies --   1003.5551              1005.8245              1016.5204
 Red. masses --      1.3722                 1.3883                 5.1314
 Frc consts  --      0.8142                 0.8275                 3.1241
 IR Inten    --      1.6249                 2.8650                 7.7817

                     70                     71                     72
                      A                      A                      A
 Frequencies --   1019.1576              1027.9338              1029.4688
 Red. masses --      5.1626                 1.3116                 1.2875
 Frc consts  --      3.1594                 0.8165                 0.8039
 IR Inten    --      0.1942                 1.2089                 0.0386

                     73                     74                     75
                      A                      A                      A
 Frequencies --   1068.8178              1070.0450              1107.8545
 Red. masses --      2.2825                 2.1826                 2.4873
 Frc consts  --      1.5363                 1.4724                 1.7986
 IR Inten    --     11.5811                 3.1082                79.2294

                     76                     77                     78
                      A                      A                      A
 Frequencies --   1115.9228              1132.9738              1145.3594
 Red. masses --      1.8890                 1.8897                 2.8092
 Frc consts  --      1.3859                 1.4292                 2.1713
 IR Inten    --     31.4355                64.8016                11.2460

                     79                     80                     81
                      A                      A                      A
 Frequencies --   1156.6547              1169.1751              1187.6250
 Red. masses --     12.7598                11.4129                 1.1196
 Frc consts  --     10.0578                 9.1919                 0.9304
 IR Inten    --    226.6282               281.8887                 0.1655

                     82                     83                     84
                      A                      A                      A
 Frequencies --   1188.0405              1210.3223              1211.8747
 Red. masses --      1.1206                 1.1219                 1.1220
 Frc consts  --      0.9319                 0.9683                 0.9709
 IR Inten    --      0.1207                 1.1227                 5.1562

                     85                     86                     87
                      A                      A                      A
 Frequencies --   1232.5735              1247.7932              1267.8083
 Red. masses --      2.0551                 2.8348                10.4366
 Frc consts  --      1.8396                 2.6005                 9.8836
 IR Inten    --      2.8632                59.9802                45.0121

                     88                     89                     90
                      A                      A                      A
 Frequencies --   1272.9293              1301.0568              1302.7415
 Red. masses --     10.5071                 2.4697                 2.6063
 Frc consts  --     10.0309                 2.4631                 2.6061
 IR Inten    --     85.3116                63.9148                97.8270

                     91                     92                     93
                      A                      A                      A
 Frequencies --   1316.6618              1319.2961              1324.3015
 Red. masses --      7.1166                 2.3397                11.7031
 Frc consts  --      7.2690                 2.3994                12.0927
 IR Inten    --    181.9800                20.7349               617.4602

                     94                     95                     96
                      A                      A                      A
 Frequencies --   1326.9652              1336.6303              1344.8918
 Red. masses --      9.7515                 2.0611                 2.2263
 Frc consts  --     10.1167                 2.1695                 2.3725
 IR Inten    --     47.1445                17.4705                 2.5745

                     97                     98                     99
                      A                      A                      A
 Frequencies --   1361.3140              1362.2143              1395.1142
 Red. masses --      2.0160                 1.7697                 4.9495
 Frc consts  --      2.2012                 1.9348                 5.6759
 IR Inten    --      5.6597                 6.2429               220.0909

                    100                    101                    102
                      A                      A                      A
 Frequencies --   1401.2387              1411.8132              1415.1103
 Red. masses --      2.3359                 1.4067                 1.7773
 Frc consts  --      2.7023                 1.6520                 2.0970
 IR Inten    --    160.1922                26.0183                55.6829

                    103                    104                    105
                      A                      A                      A
 Frequencies --   1469.7831              1476.6097              1509.4093
 Red. masses --      1.5862                 1.5719                 2.2891
 Frc consts  --      2.0189                 2.0193                 3.0727
 IR Inten    --    142.3128               156.2438                21.4371

                    106                    107                    108
                      A                      A                      A
 Frequencies --   1511.2457              1554.2564              1555.2237
 Red. masses --      2.2467                 2.3727                 2.3851
 Frc consts  --      3.0231                 3.3771                 3.3989
 IR Inten    --     51.6117                 1.5761                25.9686

                    109                    110                    111
                      A                      A                      A
 Frequencies --   1677.7519              1678.6860              1696.3579
 Red. masses --      6.1148                 6.1270                 6.0311
 Frc consts  --     10.1411                10.1727                10.2254
 IR Inten    --      1.0401                 1.9459                 2.2520

                    112                    113                    114
                      A                      A                      A
 Frequencies --   1696.8293              3112.2947              3118.9855
 Red. masses --      6.0323                 1.0853                 1.0851
 Frc consts  --     10.2331                 6.1940                 6.2195
 IR Inten    --      3.2222                 5.6377                 3.8960

                    115                    116                    117
                      A                      A                      A
 Frequencies --   3208.1417              3209.0976              3221.4582
 Red. masses --      1.0893                 1.0893                 1.0882
 Frc consts  --      6.6058                 6.6095                 6.6535
 IR Inten    --      6.2756                 7.5049                 0.8332

                    118                    119                    120
                      A                      A                      A
 Frequencies --   3230.4523              3232.9753              3238.2970
 Red. masses --      1.0867                 1.0894                 1.0905
 Frc consts  --      6.6816                 6.7086                 6.7379
 IR Inten    --      0.0541                 1.3006                 6.4790

                    121                    122                    123
                      A                      A                      A
 Frequencies --   3241.4756              3245.1954              3251.7346
 Red. masses --      1.0942                 1.0942                 1.0986
 Frc consts  --      6.7735                 6.7893                 6.8444
 IR Inten    --     12.4787                11.2074                16.5923

                    124                    125                    126
                      A                      A                      A
 Frequencies --   3253.3785              3507.5208              3543.7508
 Red. masses --      1.0987                 1.0756                 1.0763
 Frc consts  --      6.8518                 7.7964                 7.9640
 IR Inten    --     14.5128               159.4246               126.8841

 - Thermochemistry -
 -------------------
 Temperature   298.150 Kelvin.  Pressure   1.00000 Atm.
 Atom     1 has atomic number  6 and mass  12.00000

 Molecular mass:   476.02992 amu.
 Principal axes and moments of inertia in atomic units:
                           1         2         3
     Eigenvalues --  9868.25878********************
           X            0.99975  -0.02227  -0.00256
           Y            0.02226   0.99975  -0.00216
           Z            0.00261   0.00210   0.99999
 This molecule is an asymmetric top.
 Rotational symmetry number  1.
 Warning -- assumption of classical behavior for rotation
           may cause significant error
 Rotational temperatures (Kelvin)      0.00878     0.00600     0.00420
 Rotational constants (GHZ):           0.18288     0.12505     0.08757
 Zero-point vibrational energy     807873.4 (Joules/Mol)
                                  193.08638 (Kcal/Mol)
 Warning -- explicit consideration of  45 degrees of freedom as
           vibrations may cause significant error
 Vibrational temperatures:     18.85    38.22    44.28    56.58    70.67
          (Kelvin)             74.24    77.02   100.50   107.43   130.05
                              142.38   152.58   170.31   208.33   242.97
                              254.08   278.23   293.85   315.00   363.43
                              366.87   374.33   410.71   412.74   458.91
                              465.56   490.55   506.37   540.29   550.13
                              596.65   603.62   615.72   646.31   679.55
                              715.44   728.76   745.39   771.73   795.85
                              810.04   814.99   819.63   842.26   866.98
                              894.48   905.54   906.13   951.44   954.11
                              981.40  1040.31  1044.13  1106.67  1129.11
                             1139.16  1150.69  1201.28  1252.82  1265.66
                             1271.72  1340.51  1373.31  1387.30  1407.71
                             1428.69  1443.89  1447.16  1462.55  1466.34
                             1478.97  1481.18  1537.79  1539.56  1593.96
                             1605.56  1630.10  1647.92  1664.17  1682.18
                             1708.73  1709.33  1741.38  1743.62  1773.40
                             1795.30  1824.09  1831.46  1871.93  1874.35
                             1894.38  1898.17  1905.37  1909.21  1923.11
                             1935.00  1958.63  1959.92  2007.26  2016.07
                             2031.28  2036.03  2114.69  2124.51  2171.70
                             2174.35  2236.23  2237.62  2413.91  2415.25
                             2440.68  2441.36  4477.90  4487.52  4615.80
                             4617.18  4634.96  4647.90  4651.53  4659.19
                             4663.76  4669.11  4678.52  4680.89  5046.54
                             5098.67

 Zero-point correction=                           0.307703 (Hartree/Particle)
 Thermal correction to Energy=                    0.334838
 Thermal correction to Enthalpy=                  0.335783
 Thermal correction to Gibbs Free Energy=         0.247148
 Sum of electronic and zero-point Energies=          -2422.835125
 Sum of electronic and thermal Energies=             -2422.807989
 Sum of electronic and thermal Enthalpies=           -2422.807045
 Sum of electronic and thermal Free Energies=        -2422.895679

                     E (Thermal)             CV                S
                      KCal/Mol        Cal/Mol-Kelvin    Cal/Mol-Kelvin
 Total                  210.114            101.432            186.547
 Electronic               0.000              0.000              0.000
 Translational            0.889              2.981             44.369
 Rotational               0.889              2.981             36.327
 Vibrational            208.337             95.470            105.851
 Vibration     1          0.593              1.987              7.474
 Vibration     2          0.593              1.984              6.071
 Vibration     3          0.594              1.984              5.779
 Vibration     4          0.594              1.981              5.293
 Vibration     5          0.595              1.978              4.853
 Vibration     6          0.596              1.977              4.755
 Vibration     7          0.596              1.976              4.683
 Vibration     8          0.598              1.968              4.158
 Vibration     9          0.599              1.966              4.026
 Vibration    10          0.602              1.956              3.652
 Vibration    11          0.604              1.950              3.475
 Vibration    12          0.605              1.944              3.340
 Vibration    13          0.609              1.934              3.127
 Vibration    14          0.616              1.908              2.739
 Vibration    15          0.625              1.881              2.448
 Vibration    16          0.628              1.871              2.364
 Vibration    17          0.635              1.849              2.195
 Vibration    18          0.640              1.834              2.095
 Vibration    19          0.647              1.812              1.968
 Vibration    20          0.664              1.758              1.712
 Vibration    21          0.665              1.754              1.696
 Vibration    22          0.668              1.746              1.661
 Vibration    23          0.683              1.701              1.501
 Vibration    24          0.684              1.698              1.492
 Vibration    25          0.705              1.637              1.315
 Vibration    26          0.708              1.628              1.292
 Vibration    27          0.720              1.594              1.208
 Vibration    28          0.728              1.571              1.157
 Vibration    29          0.746              1.522              1.057
 Vibration    30          0.752              1.508              1.030
 Vibration    31          0.778              1.438              0.910
 Vibration    32          0.782              1.428              0.894
 Vibration    33          0.789              1.409              0.865
 Vibration    34          0.808              1.363              0.798
 Vibration    35          0.829              1.311              0.731
 Vibration    36          0.853              1.256              0.665
 Vibration    37          0.862              1.236              0.642
 Vibration    38          0.873              1.210              0.614
 Vibration    39          0.891              1.170              0.573
 Vibration    40          0.909              1.133              0.538
 Vibration    41          0.919              1.111              0.518
 Vibration    42          0.922              1.104              0.511
 Vibration    43          0.926              1.097              0.505
 Vibration    44          0.942              1.063              0.475
 Vibration    45          0.961              1.026              0.445

 Optimization completed.
    -- Stationary point found.
 Normal termination of Gaussian 16 at Thu Dec 14 19:50:51 2023.
