 Gaussian 16, Revision C.01,
 Gaussian 16:  ES64L-G16RevC.01  3-Jul-2019

 ----------------------------------------------------------------------
 # m062x 6-31g(d) scrf=(iefpcm,solvent=benzene) opt=(calcfc,maxcycles=5
 0,maxstep=10) freq=noraman
 ----------------------------------------------------------------------

 ----------
 Structure1
 ----------
 Symbolic Z-matrix:
 Charge =  0 Multiplicity = 1

 SCF Done:  E(RM062X) =  -1301.54838484     A.U. after   14 cycles
 SCF Done:  E(RM062X) =  -1301.55632630     A.U. after   12 cycles
 SCF Done:  E(RM062X) =  -1301.56138235     A.U. after   12 cycles
 SCF Done:  E(RM062X) =  -1301.53060310     A.U. after   13 cycles
 SCF Done:  E(RM062X) =  -1301.56160757     A.U. after   12 cycles
 SCF Done:  E(RM062X) =  -1301.56181822     A.U. after   11 cycles
 SCF Done:  E(RM062X) =  -1301.56246391     A.U. after   11 cycles
 SCF Done:  E(RM062X) =  -1301.56251947     A.U. after   11 cycles
 SCF Done:  E(RM062X) =  -1301.56252690     A.U. after   10 cycles
 SCF Done:  E(RM062X) =  -1301.56254649     A.U. after    9 cycles
 SCF Done:  E(RM062X) =  -1301.56255086     A.U. after    9 cycles
 SCF Done:  E(RM062X) =  -1301.56255433     A.U. after    8 cycles
 SCF Done:  E(RM062X) =  -1301.56255534     A.U. after    8 cycles
 SCF Done:  E(RM062X) =  -1301.56255548     A.U. after    7 cycles
 Optimization completed.
    -- Stationary point found.
 Normal termination of Gaussian 16 at Thu Dec 14 20:32:25 2023.

 --------------------------------------------------------------------
 #N Geom=AllCheck Guess=TCheck SCRF=Check GenChk RM062X/6-31G(d) Freq
 --------------------------------------------------------------------

 Structure from the checkpoint file:  "sasai_OPLS3e_1_opt_hess.chk"
 ----------
 Structure1
 ----------
 Charge =  0 Multiplicity = 1

                         Standard orientation:
 ---------------------------------------------------------------------
 Center     Atomic      Atomic             Coordinates (Angstroms)
 Number     Number       Type             X           Y           Z
 ---------------------------------------------------------------------
      1          6           0        2.238217    0.136510   -0.408218
      2          6           0        4.678162   -1.275116   -0.498079
      3          6           0        4.621719    0.020537   -0.927923
      4          6           0        3.392554    0.727092   -0.889581
      5          1           0        5.616289   -1.822261   -0.537510
      6          1           0        5.494365    0.535678   -1.314936
      7          8           0        3.428870    2.000959   -1.352281
      8          6           0        2.293082   -1.218440    0.063819
      9          6           0        3.522325   -1.934625    0.002393
     10          6           0        3.565708   -3.283089    0.440416
     11          6           0        2.439475   -3.906192    0.916595
     12          6           0        1.219124   -3.194395    0.988759
     13          6           0        1.148276   -1.885721    0.580853
     14          1           0        4.512719   -3.814233    0.386938
     15          1           0        2.482838   -4.940588    1.242399
     16          1           0        0.319976   -3.672601    1.364541
     17          1           0        0.207084   -1.351455    0.668015
     18          6           0       -1.567145    2.135141   -0.388240
     19          6           0        0.951030    0.886909   -0.409316
     20          6           0       -0.077065    0.451982   -1.229502
     21          6           0       -1.365823    1.052914   -1.204017
     22          1           0       -2.555774    2.587271   -0.351004
     23          8           0        0.069857   -0.603457   -2.072035
     24          6           0       -2.505002    0.490336   -2.028488
     25          6           0       -0.537651    2.658907    0.433043
     26          6           0        0.733152    2.016300    0.442394
     27          6           0        1.741843    2.524047    1.307674
     28          6           0        1.500686    3.619954    2.098106
     29          6           0        0.241991    4.266465    2.075396
     30          6           0       -0.754321    3.789030    1.263466
     31          1           0        2.705677    2.025621    1.345259
     32          1           0        2.282606    3.992402    2.752638
     33          1           0        0.068208    5.132133    2.706349
     34          1           0       -1.730457    4.266606    1.243105
     35          1           0        2.539509    2.387689   -1.285599
     36          1           0        0.957480   -0.983001   -1.953483
     37          7           0       -3.687992    0.247210   -1.205026
     38          1           0       -2.800725    1.229425   -2.781218
     39          1           0       -2.182375   -0.405850   -2.576490
     40          6           0       -4.897426    0.114568   -2.012730
     41          6           0       -3.225328   -2.506252    1.878536
     42          6           0       -4.368069   -1.707893    1.858470
     43          6           0       -4.527102   -0.794940    0.828755
     44          6           0       -3.551613   -0.706969   -0.172964
     45          6           0       -2.450978   -1.570371   -0.061727
     46          7           0       -2.282364   -2.439040    0.940686
     47          1           0       -3.063870   -3.224567    2.678410
     48          1           0       -5.386625   -0.131287    0.805739
     49          1           0       -1.662697   -1.566660   -0.810072
     50          1           0       -5.041961    1.028903   -2.594559
     51          1           0       -5.768811   -0.021932   -1.371468
     52          1           0       -4.841268   -0.738731   -2.706684
     53          1           0       -5.108418   -1.789891    2.647200
 ---------------------------------------------------------------------

 SCF Done:  E(RM062X) =  -1301.56255548     A.U. after    1 cycles

 The electronic state is 1-A.
 Alpha  occ. eigenvalues --  -19.67566 -19.67089 -14.77398 -14.75719 -10.62152
 Alpha  occ. eigenvalues --  -10.61939 -10.59086 -10.58241 -10.57482 -10.57427
 Alpha  occ. eigenvalues --  -10.57423 -10.56794 -10.56565 -10.56344 -10.56297
 Alpha  occ. eigenvalues --  -10.56197 -10.56114 -10.56002 -10.55992 -10.55795
 Alpha  occ. eigenvalues --  -10.55761 -10.55586 -10.55406 -10.55391 -10.55310
 Alpha  occ. eigenvalues --  -10.55131 -10.55079 -10.55036 -10.54696 -10.54578
 Alpha  occ. eigenvalues --  -10.54393  -1.19146  -1.18637  -1.06429  -1.03632
 Alpha  occ. eigenvalues --   -0.98828  -0.97700  -0.92895  -0.92105  -0.90165
 Alpha  occ. eigenvalues --   -0.89296  -0.85909  -0.85440  -0.85035  -0.83364
 Alpha  occ. eigenvalues --   -0.82236  -0.80747  -0.78964  -0.75630  -0.73750
 Alpha  occ. eigenvalues --   -0.71570  -0.70978  -0.69596  -0.69159  -0.68777
 Alpha  occ. eigenvalues --   -0.66926  -0.65944  -0.62831  -0.62222  -0.60735
 Alpha  occ. eigenvalues --   -0.59847  -0.59235  -0.58018  -0.56824  -0.56209
 Alpha  occ. eigenvalues --   -0.55366  -0.54038  -0.52817  -0.52379  -0.51845
 Alpha  occ. eigenvalues --   -0.51616  -0.51405  -0.50886  -0.50229  -0.49966
 Alpha  occ. eigenvalues --   -0.49556  -0.48519  -0.48030  -0.47349  -0.46874
 Alpha  occ. eigenvalues --   -0.46691  -0.46268  -0.45875  -0.45682  -0.45542
 Alpha  occ. eigenvalues --   -0.45208  -0.44966  -0.44409  -0.43715  -0.42538
 Alpha  occ. eigenvalues --   -0.41982  -0.40330  -0.39836  -0.39543  -0.37662
 Alpha  occ. eigenvalues --   -0.37412  -0.37164  -0.35820  -0.34907  -0.33144
 Alpha  occ. eigenvalues --   -0.32741  -0.31577  -0.28319  -0.28178  -0.26571
 Alpha  occ. eigenvalues --   -0.26153  -0.25029
 Alpha virt. eigenvalues --   -0.01749  -0.00331   0.01677   0.02359   0.02860
 Alpha virt. eigenvalues --    0.03535   0.05868   0.07322   0.12740   0.13327
 Alpha virt. eigenvalues --    0.14163   0.14530   0.14918   0.15076   0.15682

 Mulliken charges:
               1
     1  C   -0.105111
     2  C   -0.203107
     3  C   -0.189140
     4  C    0.294874
     5  H    0.179323
     6  H    0.185912
     7  O   -0.675295
     8  C    0.028557
     9  C    0.077032
    10  C   -0.206327
    11  C   -0.180072
    12  C   -0.172939
    13  C   -0.204336
    14  H    0.170780
    15  H    0.171020
    16  H    0.185713
    17  H    0.181576
    18  C   -0.244074
    19  C   -0.081220
    20  C    0.248131
    21  C    0.081161
    22  H    0.177926
    23  O   -0.680212
    24  C   -0.224670
    25  C    0.088132
    26  C    0.040899
    27  C   -0.211300
    28  C   -0.173871
    29  C   -0.181758
    30  C   -0.202827
    31  H    0.185224
    32  H    0.174962
    33  H    0.172711
    34  H    0.173158
    35  H    0.447739
    36  H    0.455996
    37  N   -0.520057
    38  H    0.187806
    39  H    0.188669
    40  C   -0.337701
    41  C    0.011917
    42  C   -0.187382
    43  C   -0.163707
    44  C    0.276746
    45  C   -0.019818
    46  N   -0.462745
    47  H    0.172788
    48  H    0.182430
    49  H    0.187049
    50  H    0.177489
    51  H    0.180197
    52  H    0.161378
    53  H    0.180374
 Sum of Mulliken charges =  -0.00000

 Dipole moment (field-independent basis, Debye):
    X=             -2.5959    Y=              1.0973    Z=             -0.2924  Tot=              2.8334
 Quadrupole moment (field-independent basis, Debye-Ang):
   XX=           -150.8631   YY=           -171.3443   ZZ=           -174.2140
   XY=             -9.8128   XZ=              1.7683   YZ=              0.9382

  Exact polarizability:     395.058     -21.151     378.585      -5.314      -5.417     253.568
 Approx polarizability:     433.196     -20.878     426.595      -8.238      -5.748     312.836

                      1                      2                      3
                      A                      A                      A
 Frequencies --     29.9115                35.5586                47.1354
 Red. masses --      5.2306                 5.8879                 5.5148
 Frc consts  --      0.0028                 0.0044                 0.0072
 IR Inten    --      0.3839                 0.0760                 1.1071

                      4                      5                      6
                      A                      A                      A
 Frequencies --     56.1576                65.3569                75.0646
 Red. masses --      4.6390                 4.9149                 3.9106
 Frc consts  --      0.0086                 0.0124                 0.0130
 IR Inten    --      0.4439                 1.9730                 1.8068

                      7                      8                      9
                      A                      A                      A
 Frequencies --     85.3490               103.2129               118.9692
 Red. masses --      4.8432                 4.4354                 5.6620
 Frc consts  --      0.0208                 0.0278                 0.0472
 IR Inten    --      0.7770                 1.2259                 0.3680

                     10                     11                     12
                      A                      A                      A
 Frequencies --    136.8390               150.6515               164.4999
 Red. masses --      5.6579                 3.3636                 4.0277
 Frc consts  --      0.0624                 0.0450                 0.0642
 IR Inten    --      0.1729                 2.2262                 0.2898

                     13                     14                     15
                      A                      A                      A
 Frequencies --    181.3968               187.6126               204.8161
 Red. masses --      2.1676                 3.9413                 2.1717
 Frc consts  --      0.0420                 0.0817                 0.0537
 IR Inten    --      0.0441                 0.0372                 0.4849

                     16                     17                     18
                      A                      A                      A
 Frequencies --    234.1810               247.7429               291.6571
 Red. masses --      4.3707                 4.3591                 3.5749
 Frc consts  --      0.1412                 0.1576                 0.1792
 IR Inten    --      2.3233                 5.0378                 1.4534

                     19                     20                     21
                      A                      A                      A
 Frequencies --    300.3184               314.8077               336.4350
 Red. masses --      3.5449                 3.8171                 4.5858
 Frc consts  --      0.1884                 0.2229                 0.3058
 IR Inten    --      2.9583                 1.3880                 1.8296

                     22                     23                     24
                      A                      A                      A
 Frequencies --    354.5936               357.5551               372.6976
 Red. masses --      3.6066                 3.2497                 2.5349
 Frc consts  --      0.2672                 0.2448                 0.2075
 IR Inten    --      6.7125                 0.8233                18.0960

                     25                     26                     27
                      A                      A                      A
 Frequencies --    387.0228               411.6206               423.7683
 Red. masses --      4.8007                 1.4796                 1.4976
 Frc consts  --      0.4237                 0.1477                 0.1585
 IR Inten    --      0.9192                42.7384               103.6784

                     28                     29                     30
                      A                      A                      A
 Frequencies --    430.2277               439.3445               446.2992
 Red. masses --      3.5284                 3.7786                 5.5252
 Frc consts  --      0.3848                 0.4297                 0.6484
 IR Inten    --      4.0005                14.1462                11.2550

                     31                     32                     33
                      A                      A                      A
 Frequencies --    447.4813               458.4361               468.4981
 Red. masses --      3.6825                 3.0075                 4.1944
 Frc consts  --      0.4345                 0.3724                 0.5424
 IR Inten    --     21.0268                42.7670                 3.3887

                     34                     35                     36
                      A                      A                      A
 Frequencies --    505.0882               522.1629               532.6217
 Red. masses --      3.8347                 5.1149                 6.0782
 Frc consts  --      0.5764                 0.8217                 1.0159
 IR Inten    --      4.6819                17.8816                 4.3113

                     37                     38                     39
                      A                      A                      A
 Frequencies --    544.6904               549.4280               552.2051
 Red. masses --      3.7980                 3.7440                 3.9770
 Frc consts  --      0.6639                 0.6659                 0.7145
 IR Inten    --      3.3293                 2.4185                 1.1360

                     40                     41                     42
                      A                      A                      A
 Frequencies --    557.9390               586.7391               604.6344
 Red. masses --      4.0508                 4.4002                 4.7637
 Frc consts  --      0.7430                 0.8925                 1.0261
 IR Inten    --      2.2137                 9.9724                 7.5141

                     43                     44                     45
                      A                      A                      A
 Frequencies --    634.1820               636.3240               642.0387
 Red. masses --      6.5752                 6.7357                 4.8503
 Frc consts  --      1.5581                 1.6069                 1.1780
 IR Inten    --      7.6211                 8.9662                 2.8728

                     46                     47                     48
                      A                      A                      A
 Frequencies --    677.9085               702.8817               704.0303
 Red. masses --      5.3323                 4.1311                 6.1890
 Frc consts  --      1.4438                 1.2025                 1.8074
 IR Inten    --      7.4387                 1.5266                14.5058

                     49                     50                     51
                      A                      A                      A
 Frequencies --    733.2476               740.4360               743.0254
 Red. masses --      6.4564                 4.1439                 2.6399
 Frc consts  --      2.0452                 1.3386                 0.8587
 IR Inten    --      4.3734                 3.9985                30.3778

                     52                     53                     54
                      A                      A                      A
 Frequencies --    773.3260               778.0315               782.4742
 Red. masses --      1.9278                 3.0044                 1.6250
 Frc consts  --      0.6793                 1.0715                 0.5862
 IR Inten    --     10.3128                12.3638                32.2105

                     55                     56                     57
                      A                      A                      A
 Frequencies --    786.4675               795.4438               804.7188
 Red. masses --      2.2426                 5.3552                 5.5415
 Frc consts  --      0.8173                 1.9964                 2.1143
 IR Inten    --     13.3463                 0.9376                 0.2040

                     58                     59                     60
                      A                      A                      A
 Frequencies --    836.2950               850.3831               873.9214
 Red. masses --      1.6992                 1.4997                 4.6475
 Frc consts  --      0.7002                 0.6390                 2.0913
 IR Inten    --     26.1752                51.8333                 1.6623

                     61                     62                     63
                      A                      A                      A
 Frequencies --    883.4324               903.0838               912.1968
 Red. masses --      1.4064                 1.4999                 2.7388
 Frc consts  --      0.6467                 0.7207                 1.3427
 IR Inten    --      1.3565                 3.6031                10.5352

                     64                     65                     66
                      A                      A                      A
 Frequencies --    936.9225               941.7623               956.9292
 Red. masses --      1.8267                 4.3828                 1.3109
 Frc consts  --      0.9448                 2.2903                 0.7073
 IR Inten    --     24.0904                 4.6790                 2.1293

                     67                     68                     69
                      A                      A                      A
 Frequencies --    981.1253               983.7672               984.0519
 Red. masses --      1.3508                 1.3371                 1.3216
 Frc consts  --      0.7661                 0.7624                 0.7540
 IR Inten    --     11.8268                 2.1142                 3.3258

                     70                     71                     72
                      A                      A                      A
 Frequencies --    997.2422               998.9057              1003.8086
 Red. masses --      1.4972                 1.9931                 4.5674
 Frc consts  --      0.8773                 1.1717                 2.7115
 IR Inten    --      1.5065                11.1604                 4.5314

                     73                     74                     75
                      A                      A                      A
 Frequencies --   1011.6602              1014.3106              1025.7997
 Red. masses --      1.3937                 1.2905                 2.7228
 Frc consts  --      0.8404                 0.7823                 1.6881
 IR Inten    --      0.8297                 0.3277                18.2789

                     76                     77                     78
                      A                      A                      A
 Frequencies --   1031.2352              1038.1266              1067.2254
 Red. masses --      1.3271                 2.7933                 2.2911
 Frc consts  --      0.8315                 1.7737                 1.5374
 IR Inten    --      0.3857                 2.2399                11.4583

                     79                     80                     81
                      A                      A                      A
 Frequencies --   1069.6182              1078.7546              1090.9720
 Red. masses --      2.0325                 3.1944                 2.2388
 Frc consts  --      1.3701                 2.1902                 1.5699
 IR Inten    --      0.6915                 5.3118                 4.4814

                     82                     83                     84
                      A                      A                      A
 Frequencies --   1138.1181              1152.5114              1154.4678
 Red. masses --      2.3592                 1.4503                 1.4452
 Frc consts  --      1.8005                 1.1350                 1.1348
 IR Inten    --      9.7691                39.3015                15.1595

                     85                     86                     87
                      A                      A                      A
 Frequencies --   1162.3543              1167.0699              1174.4115
 Red. masses --      1.5288                 1.4680                 1.2848
 Frc consts  --      1.2169                 1.1781                 1.0440
 IR Inten    --     41.7385                22.5022                11.7619

                     88                     89                     90
                      A                      A                      A
 Frequencies --   1181.4252              1186.1019              1207.5727
 Red. masses --      1.2778                 1.2118                 1.3783
 Frc consts  --      1.0508                 1.0044                 1.1842
 IR Inten    --     23.1127                 8.3169                36.9827

                     91                     92                     93
                      A                      A                      A
 Frequencies --   1226.1546              1235.6267              1239.5927
 Red. masses --      2.6339                 1.6753                 1.9397
 Frc consts  --      2.3331                 1.5070                 1.7560
 IR Inten    --     62.3227                97.5025                24.8628

                     94                     95                     96
                      A                      A                      A
 Frequencies --   1245.0621              1250.4176              1267.5812
 Red. masses --      1.5633                 1.8064                 1.7565
 Frc consts  --      1.4278                 1.6641                 1.6629
 IR Inten    --     74.8548                55.5372                86.0600

                     97                     98                     99
                      A                      A                      A
 Frequencies --   1283.2545              1292.6379              1307.7172
 Red. masses --      1.7188                 1.9368                 3.0841
 Frc consts  --      1.6677                 1.9067                 3.1075
 IR Inten    --     38.9185                 2.6351                24.8560

                    100                    101                    102
                      A                      A                      A
 Frequencies --   1320.3070              1331.2175              1354.9038
 Red. masses --      2.2542                 2.0448                 1.8754
 Frc consts  --      2.3152                 2.1350                 2.0285
 IR Inten    --     38.3381                20.7775                22.8122

                    103                    104                    105
                      A                      A                      A
 Frequencies --   1361.0804              1385.8317              1398.9700
 Red. masses --      2.3120                 1.3687                 2.0178
 Frc consts  --      2.5235                 1.5488                 2.3267
 IR Inten    --    119.8435                 0.5011                18.0617

                    106                    107                    108
                      A                      A                      A
 Frequencies --   1411.1607              1421.6762              1427.8473
 Red. masses --      3.3439                 3.8196                 1.8052
 Frc consts  --      3.9233                 4.5486                 2.1684
 IR Inten    --     10.0641                95.5402                49.0242

                    109                    110                    111
                      A                      A                      A
 Frequencies --   1443.1476              1447.5611              1455.9089
 Red. masses --      5.1687                 4.7504                 3.1103
 Frc consts  --      6.3425                 5.8648                 3.8843
 IR Inten    --     17.9457                78.2307                18.6904

                    112                    113                    114
                      A                      A                      A
 Frequencies --   1483.5175              1488.7791              1495.6681
 Red. masses --      1.3100                 2.1412                 2.6914
 Frc consts  --      1.6987                 2.7962                 3.5473
 IR Inten    --     22.8819                31.2535                26.0209

                    115                    116                    117
                      A                      A                      A
 Frequencies --   1509.8036              1513.3344              1517.3245
 Red. masses --      3.1566                 3.2132                 1.0579
 Frc consts  --      4.2394                 4.3357                 1.4350
 IR Inten    --     69.4579                15.1401                18.5180

                    118                    119                    120
                      A                      A                      A
 Frequencies --   1529.4717              1530.3825              1544.9108
 Red. masses --      1.2510                 2.6152                 1.1625
 Frc consts  --      1.7242                 3.6087                 1.6348
 IR Inten    --     18.7663                36.5418                 0.6056

                    121                    122                    123
                      A                      A                      A
 Frequencies --   1557.5616              1581.1549              1590.8229
 Red. masses --      1.9690                 4.1229                 4.4221
 Frc consts  --      2.8144                 6.0729                 6.5937
 IR Inten    --    100.8950                63.1858                22.9211

                    124                    125                    126
                      A                      A                      A
 Frequencies --   1660.9873              1668.9999              1676.9634
 Red. masses --      5.6533                 7.6784                 7.5166
 Frc consts  --      9.1894                12.6018                12.4544
 IR Inten    --      8.4474                14.0923                 5.5306

                    127                    128                    129
                      A                      A                      A
 Frequencies --   1682.5187              1690.8422              1696.9406
 Red. masses --      6.2880                 6.2397                 6.2858
 Frc consts  --     10.4877                10.5105                10.6646
 IR Inten    --     24.7769                76.4405                22.4571

                    130                    131                    132
                      A                      A                      A
 Frequencies --   1713.4432              1717.9273              3031.1538
 Red. masses --      6.5908                 6.8886                 1.0537
 Frc consts  --     11.4005                11.9781                 5.7039
 IR Inten    --     67.4508                34.3429                97.4433

                    133                    134                    135
                      A                      A                      A
 Frequencies --   3068.0397              3113.4998              3138.1477
 Red. masses --      1.0632                 1.0998                 1.0842
 Frc consts  --      5.8966                 6.2816                 6.2908
 IR Inten    --     37.8381                17.3570                31.0593

                    136                    137                    138
                      A                      A                      A
 Frequencies --   3193.5045              3213.1881              3214.6157
 Red. masses --      1.1008                 1.0886                 1.0905
 Frc consts  --      6.6144                 6.6221                 6.6397
 IR Inten    --     17.9993                 5.9414                 0.7725

                    139                    140                    141
                      A                      A                      A
 Frequencies --   3214.8427              3216.8380              3220.6600
 Red. masses --      1.0891                 1.0885                 1.0897
 Frc consts  --      6.6318                 6.6364                 6.6596
 IR Inten    --     16.4529                 7.8887                 9.7486

                    142                    143                    144
                      A                      A                      A
 Frequencies --   3227.7653              3228.3506              3233.2938
 Red. masses --      1.0883                 1.0901                 1.0894
 Frc consts  --      6.6806                 6.6937                 6.7102
 IR Inten    --      5.9595                13.5786                10.7475

                    145                    146                    147
                      A                      A                      A
 Frequencies --   3235.9731              3240.0417              3241.9302
 Red. masses --      1.0908                 1.0934                 1.0920
 Frc consts  --      6.7299                 6.7627                 6.7620
 IR Inten    --      2.8006                17.3322                12.7507

                    148                    149                    150
                      A                      A                      A
 Frequencies --   3247.9319              3249.4858              3249.9474
 Red. masses --      1.0979                 1.0974                 1.0972
 Frc consts  --      6.8237                 6.8272                 6.8281
 IR Inten    --     22.1215                18.3040                 6.2320

                    151                    152                    153
                      A                      A                      A
 Frequencies --   3251.4417              3752.9492              3760.7632
 Red. masses --      1.0949                 1.0649                 1.0652
 Frc consts  --      6.8200                 8.8373                 8.8767
 IR Inten    --      7.4483               101.8723               221.8718

 - Thermochemistry -
 -------------------
 Temperature   298.150 Kelvin.  Pressure   1.00000 Atm.
 Atom     1 has atomic number  6 and mass  12.00000

 Molecular mass:   406.16813 amu.
 Principal axes and moments of inertia in atomic units:
                           1         2         3
     Eigenvalues --  8961.69962********************
           X            0.99992  -0.00996   0.00822
           Y            0.00994   0.99995   0.00182
           Z           -0.00823  -0.00174   0.99996
 This molecule is an asymmetric top.
 Rotational symmetry number  1.
 Warning -- assumption of classical behavior for rotation
           may cause significant error
 Rotational temperatures (Kelvin)      0.00966     0.00624     0.00474
 Rotational constants (GHZ):           0.20138     0.12996     0.09868
 Zero-point vibrational energy    1134982.2 (Joules/Mol)
                                  271.26725 (Kcal/Mol)
 Warning -- explicit consideration of  42 degrees of freedom as
           vibrations may cause significant error
 Vibrational temperatures:     43.04    51.16    67.82    80.80    94.03
          (Kelvin)            108.00   122.80   148.50   171.17   196.88
                              216.75   236.68   260.99   269.93   294.68
                              336.93   356.45   419.63   432.09   452.94
                              484.05   510.18   514.44   536.23   556.84
                              592.23   609.71   619.00   632.12   642.12
                              643.83   659.59   674.06   726.71   751.28
                              766.32   783.69   790.50   794.50   802.75
                              844.19   869.93   912.45   915.53   923.75
                              975.36  1011.29  1012.94  1054.98  1065.32
                             1069.05  1112.64  1119.41  1125.81  1131.55
                             1144.47  1157.81  1203.24  1223.51  1257.38
                             1271.06  1299.34  1312.45  1348.02  1354.99
                             1376.81  1411.62  1415.42  1415.83  1434.81
                             1437.20  1444.26  1455.55  1459.37  1475.90
                             1483.72  1493.63  1535.50  1538.94  1552.09
                             1569.67  1637.50  1658.21  1661.02  1672.37
                             1679.15  1689.72  1699.81  1706.54  1737.43
                             1764.16  1777.79  1783.50  1791.37  1799.07
                             1823.77  1846.32  1859.82  1881.51  1899.63
                             1915.33  1949.40  1958.29  1993.90  2012.81
                             2030.35  2045.47  2054.35  2076.37  2082.72
                             2094.73  2134.45  2142.02  2151.93  2172.27
                             2177.35  2183.09  2200.57  2201.88  2222.78
                             2240.98  2274.93  2288.84  2389.79  2401.32
                             2412.78  2420.77  2432.74  2441.52  2465.26
                             2471.71  4361.15  4414.22  4479.63  4515.09
                             4594.74  4623.06  4625.12  4625.44  4628.31
                             4633.81  4644.03  4644.88  4651.99  4655.84
                             4661.70  4664.41  4673.05  4675.29  4675.95
                             4678.10  5399.66  5410.90

 Zero-point correction=                           0.432292 (Hartree/Particle)
 Thermal correction to Energy=                    0.456847
 Thermal correction to Enthalpy=                  0.457791
 Thermal correction to Gibbs Free Energy=         0.378515
 Sum of electronic and zero-point Energies=          -1301.130264
 Sum of electronic and thermal Energies=             -1301.105709
 Sum of electronic and thermal Enthalpies=           -1301.104764
 Sum of electronic and thermal Free Energies=        -1301.184040

                     E (Thermal)             CV                S
                      KCal/Mol        Cal/Mol-Kelvin    Cal/Mol-Kelvin
 Total                  286.676            100.006            166.851
 Electronic               0.000              0.000              0.000
 Translational            0.889              2.981             43.896
 Rotational               0.889              2.981             36.074
 Vibrational            284.898             94.044             86.880
 Vibration     1          0.594              1.984              5.835
 Vibration     2          0.594              1.982              5.492
 Vibration     3          0.595              1.979              4.934
 Vibration     4          0.596              1.975              4.588
 Vibration     5          0.597              1.971              4.289
 Vibration     6          0.599              1.966              4.016
 Vibration     7          0.601              1.959              3.764
 Vibration     8          0.605              1.947              3.393
 Vibration     9          0.609              1.934              3.117
 Vibration    10          0.614              1.917              2.848
 Vibration    11          0.618              1.902              2.664
 Vibration    12          0.623              1.886              2.497
 Vibration    13          0.630              1.865              2.314
 Vibration    14          0.632              1.857              2.251
 Vibration    15          0.640              1.833              2.089
 Vibration    16          0.654              1.789              1.847
 Vibration    17          0.661              1.767              1.747
 Vibration    18          0.687              1.689              1.464
 Vibration    19          0.693              1.673              1.415
 Vibration    20          0.702              1.645              1.337
 Vibration    21          0.717              1.603              1.229
 Vibration    22          0.730              1.566              1.146
 Vibration    23          0.733              1.560              1.133
 Vibration    24          0.744              1.528              1.069
 Vibration    25          0.755              1.498              1.012
 Vibration    26          0.776              1.445              0.921
 Vibration    27          0.786              1.419              0.879
 Vibration    28          0.791              1.404              0.858
 Vibration    29          0.799              1.384              0.829
 Vibration    30          0.806              1.369              0.807
 Vibration    31          0.807              1.366              0.803
 Vibration    32          0.816              1.342              0.771
 Vibration    33          0.826              1.320              0.742
 Vibration    34          0.860              1.239              0.646
 Vibration    35          0.877              1.201              0.605
 Vibration    36          0.888              1.178              0.581
 Vibration    37          0.900              1.151              0.555
 Vibration    38          0.905              1.141              0.545
 Vibration    39          0.908              1.135              0.540
 Vibration    40          0.913              1.122              0.528
 Vibration    41          0.944              1.060              0.473
 Vibration    42          0.963              1.022              0.442

 Optimization completed.
    -- Stationary point found.
 Normal termination of Gaussian 16 at Thu Dec 14 20:55:56 2023.
