 Gaussian 16, Revision C.01,
 Gaussian 16:  ES64L-G16RevC.01  3-Jul-2019

 ----------------------------------------------------------------------
 # m062x 6-31g(d) scrf=(iefpcm,solvent=benzene) opt=(calcfc,maxcycles=5
 0,maxstep=10) freq=noraman
 ----------------------------------------------------------------------

 ------------
 Structure283
 ------------
 Symbolic Z-matrix:
 Charge =  0 Multiplicity = 1

 SCF Done:  E(RM062X) =  -902.435146101     A.U. after   13 cycles
 SCF Done:  E(RM062X) =  -902.443527944     A.U. after   12 cycles
 SCF Done:  E(RM062X) =  -902.450939372     A.U. after   12 cycles
 SCF Done:  E(RM062X) =  -902.451516871     A.U. after   12 cycles
 SCF Done:  E(RM062X) =  -902.451572680     A.U. after   11 cycles
 SCF Done:  E(RM062X) =  -902.451577653     A.U. after   11 cycles
 SCF Done:  E(RM062X) =  -902.451590510     A.U. after   10 cycles
 SCF Done:  E(RM062X) =  -902.451599362     A.U. after   10 cycles
 SCF Done:  E(RM062X) =  -902.451599966     A.U. after    9 cycles
 SCF Done:  E(RM062X) =  -902.451600154     A.U. after    8 cycles
 SCF Done:  E(RM062X) =  -902.451599997     A.U. after    7 cycles
 Optimization completed.
    -- Stationary point found.
 Normal termination of Gaussian 16 at Thu Dec 14 20:20:52 2023.

 --------------------------------------------------------------------
 #N Geom=AllCheck Guess=TCheck SCRF=Check GenChk RM062X/6-31G(d) Freq
 --------------------------------------------------------------------

 Structure from the checkpoint file:  "superquat_OPLS3e_1_opt_hess.chk"
 ------------
 Structure283
 ------------
 Charge =  0 Multiplicity = 1

                         Standard orientation:
 ---------------------------------------------------------------------
 Center     Atomic      Atomic             Coordinates (Angstroms)
 Number     Number       Type             X           Y           Z
 ---------------------------------------------------------------------
      1          6           0        2.891302   -0.096022   -0.312827
      2          8           0        2.158626   -1.094866   -1.076054
      3          7           0        0.787980   -0.447927    0.549911
      4          6           0        1.762497    0.645123    0.442926
      5          6           0        3.791795   -0.841336    0.667437
      6          6           0        3.713058    0.725676   -1.287313
      7          1           0        2.099243    0.918130    1.446910
      8          6           0        1.160885    1.881037   -0.255380
      9          6           0        1.004125   -1.395133   -0.454538
     10          8           0        0.320748   -2.339316   -0.753078
     11          6           0       -0.131314   -0.515153    1.600406
     12          8           0       -0.013728    0.239700    2.543735
     13          6           0       -1.317269   -1.445905    1.450844
     14          1           0       -1.025247   -2.419270    1.059920
     15          1           0       -1.740750   -1.555401    2.451734
     16          6           0       -4.061450    0.581606   -1.195203
     17          6           0       -3.469630   -0.613205   -1.595888
     18          6           0       -2.592326   -1.284567   -0.745231
     19          6           0       -2.305409   -0.765610    0.518078
     20          6           0       -2.906287    0.432740    0.917033
     21          6           0       -3.778741    1.104035    0.066021
     22          1           0       -4.741765    1.103421   -1.861116
     23          1           0       -3.687454   -1.026159   -2.576143
     24          1           0       -2.116350   -2.206261   -1.062941
     25          1           0       -2.677434    0.838762    1.900131
     26          1           0       -4.238525    2.033545    0.387602
     27          6           0        0.384185    1.530466   -1.529590
     28          6           0        0.260493    2.683859    0.688126
     29          1           0        2.014237    2.519697   -0.519479
     30          1           0       -0.522888    0.966524   -1.279434
     31          1           0        0.070660    2.447573   -2.037010
     32          1           0        0.965705    0.933377   -2.238057
     33          1           0       -0.010706    3.634886    0.218870
     34          1           0       -0.665360    2.141456    0.901408
     35          1           0        0.754521    2.893796    1.641203
     36          1           0        4.408591   -0.130562    1.224795
     37          1           0        3.196077   -1.417490    1.382493
     38          1           0        4.446686   -1.526844    0.123757
     39          1           0        4.257093    1.506098   -0.747345
     40          1           0        4.442654    0.076543   -1.778631
     41          1           0        3.094504    1.193861   -2.054276
 ---------------------------------------------------------------------

 SCF Done:  E(RM062X) =  -902.451599997     A.U. after    1 cycles

 The electronic state is 1-A.
 Alpha  occ. eigenvalues --  -19.69137 -19.63653 -19.63546 -14.81581 -10.71984
 Alpha  occ. eigenvalues --  -10.67749 -10.63186 -10.60122 -10.56408 -10.55896
 Alpha  occ. eigenvalues --  -10.55855 -10.55137 -10.55110 -10.55024 -10.54987
 Alpha  occ. eigenvalues --  -10.54947 -10.54869 -10.54748 -10.53427 -10.53112
 Alpha  occ. eigenvalues --   -1.25705  -1.18431  -1.15936  -1.05836  -0.96290
 Alpha  occ. eigenvalues --   -0.93196  -0.89389  -0.88386  -0.83931  -0.81632
 Alpha  occ. eigenvalues --   -0.79998  -0.78305  -0.77446  -0.74917  -0.70847
 Alpha  occ. eigenvalues --   -0.68780  -0.67293  -0.65984  -0.62501  -0.59562
 Alpha  occ. eigenvalues --   -0.58841  -0.57619  -0.55957  -0.55378  -0.53771
 Alpha  occ. eigenvalues --   -0.53135  -0.52631  -0.51776  -0.50828  -0.50226
 Alpha  occ. eigenvalues --   -0.49767  -0.48905  -0.48256  -0.47696  -0.46723
 Alpha  occ. eigenvalues --   -0.46427  -0.46139  -0.45458  -0.45030  -0.44161
 Alpha  occ. eigenvalues --   -0.44002  -0.43095  -0.41970  -0.40941  -0.40260
 Alpha  occ. eigenvalues --   -0.39650  -0.39325  -0.38892  -0.36785  -0.36134
 Alpha  occ. eigenvalues --   -0.34730  -0.33006  -0.30272  -0.29536
 Alpha virt. eigenvalues --    0.01401   0.03072   0.04530   0.09681   0.11402
 Alpha virt. eigenvalues --    0.13797   0.14580   0.14691   0.16201   0.16703
 Alpha virt. eigenvalues --    0.16899   0.17974   0.18324   0.18802   0.19372

 Mulliken charges:
               1
     1  C    0.218731
     2  O   -0.511371
     3  N   -0.558120
     4  C   -0.016136
     5  C   -0.475301
     6  C   -0.491010
     7  H    0.199579
     8  C   -0.119522
     9  C    0.829463
    10  O   -0.509723
    11  C    0.600995
    12  O   -0.495359
    13  C   -0.428071
    14  H    0.218726
    15  H    0.203085
    16  C   -0.169570
    17  C   -0.171060
    18  C   -0.198585
    19  C    0.075123
    20  C   -0.196256
    21  C   -0.168601
    22  H    0.171652
    23  H    0.174199
    24  H    0.192532
    25  H    0.180480
    26  H    0.173409
    27  C   -0.503487
    28  C   -0.472772
    29  H    0.158147
    30  H    0.169524
    31  H    0.170935
    32  H    0.170909
    33  H    0.159705
    34  H    0.164220
    35  H    0.165883
    36  H    0.175994
    37  H    0.176268
    38  H    0.186108
    39  H    0.177921
    40  H    0.187091
    41  H    0.184264
 Sum of Mulliken charges =  -0.00000

 Dipole moment (field-independent basis, Debye):
    X=              2.1856    Y=              2.4726    Z=             -0.5645  Tot=              3.3480
 Quadrupole moment (field-independent basis, Debye-Ang):
   XX=           -104.3536   YY=           -120.3279   ZZ=           -123.8125
   XY=              1.0991   XZ=              3.4233   YZ=             -6.3562

  Exact polarizability:     199.901     -13.773     180.710      14.642      11.689     183.162
 Approx polarizability:     195.214     -14.270     212.634      16.654      24.387     221.542

                      1                      2                      3
                      A                      A                      A
 Frequencies --     25.7131                30.5269                66.1649
 Red. masses --      4.4470                 4.2547                 4.0434
 Frc consts  --      0.0017                 0.0023                 0.0104
 IR Inten    --      0.8057                 1.0657                 0.1251

                      4                      5                      6
                      A                      A                      A
 Frequencies --     83.1858               107.0265               126.7981
 Red. masses --      4.1692                 4.2349                 5.6761
 Frc consts  --      0.0170                 0.0286                 0.0538
 IR Inten    --      0.3752                 2.6380                 4.2360

                      7                      8                      9
                      A                      A                      A
 Frequencies --    131.3173               149.0610               177.5443
 Red. masses --      4.5721                 3.4825                 4.3690
 Frc consts  --      0.0465                 0.0456                 0.0811
 IR Inten    --      1.6754                 0.9040                 4.9790

                     10                     11                     12
                      A                      A                      A
 Frequencies --    195.4229               230.1245               247.1382
 Red. masses --      3.3332                 2.5115                 1.0988
 Frc consts  --      0.0750                 0.0784                 0.0395
 IR Inten    --      1.2606                 2.8621                 0.3940

                     13                     14                     15
                      A                      A                      A
 Frequencies --    256.2880               277.1792               286.3777
 Red. masses --      1.2242                 1.8141                 1.3122
 Frc consts  --      0.0474                 0.0821                 0.0634
 IR Inten    --      0.3629                 0.4998                 0.3515

                     16                     17                     18
                      A                      A                      A
 Frequencies --    303.9080               308.9694               318.9668
 Red. masses --      1.9128                 2.6774                 1.8868
 Frc consts  --      0.1041                 0.1506                 0.1131
 IR Inten    --      1.6439                 0.5005                 0.1917

                     19                     20                     21
                      A                      A                      A
 Frequencies --    336.9259               360.4326               376.1429
 Red. masses --      4.2382                 2.7841                 4.1196
 Frc consts  --      0.2835                 0.2131                 0.3434
 IR Inten    --      0.9866                 1.8800                 8.5449

                     22                     23                     24
                      A                      A                      A
 Frequencies --    416.2080               419.2712               422.0447
 Red. masses --      2.5171                 2.9240                 2.6320
 Frc consts  --      0.2569                 0.3028                 0.2762
 IR Inten    --      1.9837                 0.7701                 2.1059

                     25                     26                     27
                      A                      A                      A
 Frequencies --    453.2303               490.1651               526.5009
 Red. masses --      4.0391                 3.3499                 4.2132
 Frc consts  --      0.4888                 0.4742                 0.6881
 IR Inten    --      1.3971                 2.4351                 9.0084

                     28                     29                     30
                      A                      A                      A
 Frequencies --    536.4928               566.3473               617.1713
 Red. masses --      3.5930                 3.2993                 3.8520
 Frc consts  --      0.6093                 0.6235                 0.8645
 IR Inten    --      4.1599                 2.3256                11.4260

                     31                     32                     33
                      A                      A                      A
 Frequencies --    631.4439               642.3612               676.7054
 Red. masses --      5.9701                 4.7938                 4.5400
 Frc consts  --      1.4025                 1.1654                 1.2249
 IR Inten    --      2.5454                65.7061                 5.6734

                     34                     35                     36
                      A                      A                      A
 Frequencies --    714.8996               738.9111               772.5529
 Red. masses --      3.1549                 1.9315                 4.8141
 Frc consts  --      0.9500                 0.6213                 1.6929
 IR Inten    --      9.1907                77.7401                19.5585

                     37                     38                     39
                      A                      A                      A
 Frequencies --    784.3851               827.9260               842.1388
 Red. masses --      3.4378                 4.2564                 2.7443
 Frc consts  --      1.2462                 1.7190                 1.1467
 IR Inten    --     20.2568                10.8117                 3.1507

                     40                     41                     42
                      A                      A                      A
 Frequencies --    859.7988               881.1216               890.1258
 Red. masses --      3.7229                 1.2470                 3.7616
 Frc consts  --      1.6215                 0.5704                 1.7560
 IR Inten    --      7.3203                 0.9609                 3.5157

                     43                     44                     45
                      A                      A                      A
 Frequencies --    942.4196               950.3684               953.4687
 Red. masses --      1.3430                 1.7855                 1.4426
 Frc consts  --      0.7027                 0.9502                 0.7727
 IR Inten    --      2.7701                 0.2781                 2.9321

                     46                     47                     48
                      A                      A                      A
 Frequencies --    960.0992               967.3925               986.6912
 Red. masses --      1.3843                 2.1010                 1.4795
 Frc consts  --      0.7518                 1.1585                 0.8486
 IR Inten    --      0.3427                13.7045                 0.4838

                     49                     50                     51
                      A                      A                      A
 Frequencies --   1002.7631              1006.6654              1018.8476
 Red. masses --      1.3758                 2.0022                 4.1645
 Frc consts  --      0.8151                 1.1954                 2.5470
 IR Inten    --      2.0941                16.4519                 1.6101

                     52                     53                     54
                      A                      A                      A
 Frequencies --   1019.8156              1024.6444              1042.6842
 Red. masses --      1.7224                 1.3082                 1.6117
 Frc consts  --      1.0554                 0.8092                 1.0324
 IR Inten    --      5.4469                 0.4148                 7.7732

                     55                     56                     57
                      A                      A                      A
 Frequencies --   1063.5197              1069.9489              1112.2297
 Red. masses --      2.8111                 2.1886                 1.7438
 Frc consts  --      1.8734                 1.4762                 1.2710
 IR Inten    --     44.0429                 6.3547                33.6915

                     58                     59                     60
                      A                      A                      A
 Frequencies --   1120.7524              1136.0299              1166.7597
 Red. masses --      1.5054                 2.1704                 1.9178
 Frc consts  --      1.1141                 1.6503                 1.5382
 IR Inten    --      6.9864                11.5936                95.6821

                     61                     62                     63
                      A                      A                      A
 Frequencies --   1185.2890              1204.3573              1212.2913
 Red. masses --      1.1359                 1.8156                 1.1228
 Frc consts  --      0.9403                 1.5516                 0.9722
 IR Inten    --      5.9591               226.4830                 0.4547

                     64                     65                     66
                      A                      A                      A
 Frequencies --   1217.6923              1221.6836              1229.0290
 Red. masses --      1.9257                 2.0076                 2.5029
 Frc consts  --      1.6823                 1.7654                 2.2275
 IR Inten    --      3.4418                21.2730                 2.6567

                     67                     68                     69
                      A                      A                      A
 Frequencies --   1259.2004              1269.1382              1320.2714
 Red. masses --      3.4910                 2.5709                 1.6238
 Frc consts  --      3.2613                 2.4398                 1.6677
 IR Inten    --     19.5655                58.5230                 1.2892

                     70                     71                     72
                      A                      A                      A
 Frequencies --   1332.6326              1343.3000              1346.2596
 Red. masses --      3.1572                 3.2551                 1.7268
 Frc consts  --      3.3035                 3.4606                 1.8440
 IR Inten    --    164.9007                 9.6306                13.9398

                     73                     74                     75
                      A                      A                      A
 Frequencies --   1359.4402              1367.1388              1383.7340
 Red. masses --      2.1681                 1.4640                 2.1885
 Frc consts  --      2.3607                 1.6122                 2.4688
 IR Inten    --     26.5697                40.1767               144.0062

                     76                     77                     78
                      A                      A                      A
 Frequencies --   1403.1821              1418.6707              1429.8130
 Red. masses --      1.5136                 2.2183                 1.3799
 Frc consts  --      1.7559                 2.6304                 1.6621
 IR Inten    --     15.3027               354.0646                 5.0958

                     79                     80                     81
                      A                      A                      A
 Frequencies --   1434.2598              1446.4402              1453.4476
 Red. masses --      1.3398                 1.2887                 1.2602
 Frc consts  --      1.6238                 1.5886                 1.5685
 IR Inten    --     17.2288                26.2730                13.2753

                     82                     83                     84
                      A                      A                      A
 Frequencies --   1494.2246              1503.6318              1506.3568
 Red. masses --      1.1258                 1.0490                 1.0481
 Frc consts  --      1.4810                 1.3973                 1.4012
 IR Inten    --     46.3939                 1.5246                 5.9303

                     85                     86                     87
                      A                      A                      A
 Frequencies --   1510.3861              1511.1052              1521.2127
 Red. masses --      2.1083                 1.0832                 1.0600
 Frc consts  --      2.8338                 1.4572                 1.4452
 IR Inten    --     12.5523                 2.6117                 2.4266

                     88                     89                     90
                      A                      A                      A
 Frequencies --   1525.6904              1533.1444              1535.1484
 Red. masses --      1.0704                 1.0460                 1.0558
 Frc consts  --      1.4679                 1.4486                 1.4659
 IR Inten    --      1.1017                 7.1278                 5.2437

                     91                     92                     93
                      A                      A                      A
 Frequencies --   1542.0690              1553.9511              1676.2847
 Red. masses --      1.0627                 2.3624                 6.0928
 Frc consts  --      1.4889                 3.3611                10.0869
 IR Inten    --      3.1577                20.1761                 2.6641

                     94                     95                     96
                      A                      A                      A
 Frequencies --   1693.9783              1831.9818              1904.6669
 Red. masses --      6.0130                11.6768                12.6463
 Frc consts  --     10.1662                23.0896                27.0303
 IR Inten    --      7.0831               309.3393               628.7409

                     97                     98                     99
                      A                      A                      A
 Frequencies --   3074.3551              3080.9035              3087.5405
 Red. masses --      1.0795                 1.0419                 1.0361
 Frc consts  --      6.0117                 5.8268                 5.8195
 IR Inten    --     19.8451                14.8716                22.6031

                    100                    101                    102
                      A                      A                      A
 Frequencies --   3091.0883              3103.2644              3134.5751
 Red. masses --      1.0355                 1.0376                 1.0637
 Frc consts  --      5.8291                 5.8876                 6.1576
 IR Inten    --      9.5322                10.7350                 9.0774

                    103                    104                    105
                      A                      A                      A
 Frequencies --   3138.0765              3151.2335              3161.7522
 Red. masses --      1.0864                 1.1001                 1.1027
 Frc consts  --      6.3033                 6.4366                 6.4947
 IR Inten    --      7.6596                13.9018                28.3627

                    106                    107                    108
                      A                      A                      A
 Frequencies --   3169.5863              3170.2263              3173.2600
 Red. masses --      1.1024                 1.1031                 1.1022
 Frc consts  --      6.5252                 6.5318                 6.5392
 IR Inten    --     22.9684                19.9701                19.5198

                    109                    110                    111
                      A                      A                      A
 Frequencies --   3175.4901              3182.9691              3201.8549
 Red. masses --      1.1031                 1.1035                 1.1016
 Frc consts  --      6.5538                 6.5872                 6.6541
 IR Inten    --      4.8537                19.6182                10.7658

                    112                    113                    114
                      A                      A                      A
 Frequencies --   3208.7278              3210.5307              3222.6624
 Red. masses --      1.0890                 1.1025                 1.0872
 Frc consts  --      6.6062                 6.6952                 6.6524
 IR Inten    --      2.8623                 0.1248                 0.6774

                    115                    116                    117
                      A                      A                      A
 Frequencies --   3232.4347              3243.5450              3253.4783
 Red. masses --      1.0923                 1.0967                 1.0949
 Frc consts  --      6.7246                 6.7981                 6.8286
 IR Inten    --     17.3914                19.9127                 3.6715

 - Thermochemistry -
 -------------------
 Temperature   298.150 Kelvin.  Pressure   1.00000 Atm.
 Atom     1 has atomic number  6 and mass  12.00000

 Molecular mass:   275.15214 amu.
 Principal axes and moments of inertia in atomic units:
                           1         2         3
     Eigenvalues --  2985.563276874.261457184.05052
           X            0.99999   0.00451   0.00155
           Y           -0.00435   0.99573  -0.09224
           Z           -0.00196   0.09223   0.99574
 This molecule is an asymmetric top.
 Rotational symmetry number  1.
 Warning -- assumption of classical behavior for rotation
           may cause significant error
 Rotational temperatures (Kelvin)      0.02901     0.01260     0.01206
 Rotational constants (GHZ):           0.60449     0.26254     0.25121
 Zero-point vibrational energy     925902.3 (Joules/Mol)
                                  221.29596 (Kcal/Mol)
 Warning -- explicit consideration of  30 degrees of freedom as
           vibrations may cause significant error
 Vibrational temperatures:     37.00    43.92    95.20   119.69   153.99
          (Kelvin)            182.43   188.94   214.47   255.45   281.17
                              331.10   355.58   368.74   398.80   412.03
                              437.26   444.54   458.92   484.76   518.58
                              541.19   598.83   603.24   607.23   652.10
                              705.24   757.52   771.89   814.85   887.97
                              908.51   924.21   973.63  1028.58  1063.13
                             1111.53  1128.56  1191.20  1211.65  1237.06
                             1267.74  1280.69  1355.93  1367.37  1371.83
                             1381.37  1391.86  1419.63  1442.75  1448.37
                             1465.89  1467.29  1474.23  1500.19  1530.17
                             1539.42  1600.25  1612.51  1634.49  1678.71
                             1705.37  1732.80  1744.22  1751.99  1757.73
                             1768.30  1811.71  1826.01  1899.58  1917.36
                             1932.71  1936.97  1955.93  1967.01  1990.88
                             2018.87  2041.15  2057.18  2063.58  2081.10
                             2091.19  2149.86  2163.39  2167.31  2173.11
                             2174.14  2188.69  2195.13  2205.85  2208.74
                             2218.69  2235.79  2411.80  2437.26  2635.81
                             2740.39  4423.31  4432.73  4442.28  4447.39
                             4464.91  4509.95  4514.99  4533.92  4549.06
                             4560.33  4561.25  4565.61  4568.82  4579.58
                             4606.76  4616.64  4619.24  4636.69  4650.75
                             4666.74  4681.03

 Zero-point correction=                           0.352658 (Hartree/Particle)
 Thermal correction to Energy=                    0.371447
 Thermal correction to Enthalpy=                  0.372391
 Thermal correction to Gibbs Free Energy=         0.305960
 Sum of electronic and zero-point Energies=           -902.098942
 Sum of electronic and thermal Energies=              -902.080153
 Sum of electronic and thermal Enthalpies=            -902.079209
 Sum of electronic and thermal Free Energies=         -902.145640

                     E (Thermal)             CV                S
                      KCal/Mol        Cal/Mol-Kelvin    Cal/Mol-Kelvin
 Total                  233.087             73.676            139.817
 Electronic               0.000              0.000              0.000
 Translational            0.889              2.981             42.735
 Rotational               0.889              2.981             33.355
 Vibrational            231.309             67.714             63.727
 Vibration     1          0.593              1.985              6.135
 Vibration     2          0.594              1.984              5.795
 Vibration     3          0.598              1.970              4.264
 Vibration     4          0.600              1.961              3.814
 Vibration     5          0.606              1.944              3.322
 Vibration     6          0.611              1.926              2.994
 Vibration     7          0.612              1.922              2.927
 Vibration     8          0.618              1.904              2.684
 Vibration     9          0.628              1.870              2.354
 Vibration    10          0.636              1.846              2.176
 Vibration    11          0.652              1.795              1.878
 Vibration    12          0.661              1.768              1.751
 Vibration    13          0.666              1.752              1.687
 Vibration    14          0.678              1.716              1.551
 Vibration    15          0.684              1.699              1.495
 Vibration    16          0.695              1.666              1.395
 Vibration    17          0.698              1.657              1.368
 Vibration    18          0.705              1.637              1.315
 Vibration    19          0.718              1.602              1.227
 Vibration    20          0.735              1.554              1.120
 Vibration    21          0.747              1.521              1.055
 Vibration    22          0.779              1.435              0.905
 Vibration    23          0.782              1.428              0.894
 Vibration    24          0.784              1.422              0.885
 Vibration    25          0.812              1.354              0.786
 Vibration    26          0.846              1.272              0.683
 Vibration    27          0.881              1.191              0.595
 Vibration    28          0.892              1.169              0.573
 Vibration    29          0.922              1.104              0.511
 Vibration    30          0.977              0.996              0.421

 Optimization completed.
    -- Stationary point found.
 Normal termination of Gaussian 16 at Thu Dec 14 20:29:19 2023.
