 Gaussian 16, Revision C.01,
 Gaussian 16:  ES64L-G16RevC.01  3-Jul-2019

 ----------------------------------------------------------------------
 # m062x 6-31g(d) scrf=(iefpcm,solvent=benzene) opt=(calcfc,maxcycles=5
 0,maxstep=10) freq=noraman
 ----------------------------------------------------------------------

 ----------
 Structure1
 ----------
 Symbolic Z-matrix:
 Charge =  0 Multiplicity = 1

 SCF Done:  E(RM062X) =  -1821.40961920     A.U. after   13 cycles
 SCF Done:  E(RM062X) =  -1821.41431930     A.U. after   12 cycles
 SCF Done:  E(RM062X) =  -1821.42119006     A.U. after   12 cycles
 SCF Done:  E(RM062X) =  -1821.42319972     A.U. after   14 cycles
 SCF Done:  E(RM062X) =  -1821.42284423     A.U. after   14 cycles
 SCF Done:  E(RM062X) =  -1821.41664595     A.U. after   12 cycles
 SCF Done:  E(RM062X) =  -1821.41929067     A.U. after   12 cycles
 SCF Done:  E(RM062X) =  -1821.42334258     A.U. after    8 cycles
 SCF Done:  E(RM062X) =  -1821.42351181     A.U. after   11 cycles
 SCF Done:  E(RM062X) =  -1821.42346598     A.U. after   11 cycles
 SCF Done:  E(RM062X) =  -1821.42333457     A.U. after   11 cycles
 SCF Done:  E(RM062X) =  -1821.42353050     A.U. after   11 cycles
 SCF Done:  E(RM062X) =  -1821.42354081     A.U. after    9 cycles
 SCF Done:  E(RM062X) =  -1821.42354144     A.U. after    8 cycles
 SCF Done:  E(RM062X) =  -1821.42354236     A.U. after    8 cycles
 Optimization completed.
    -- Stationary point found.
 Normal termination of Gaussian 16 at Thu Dec 14 20:53:48 2023.

 --------------------------------------------------------------------
 #N Geom=AllCheck Guess=TCheck SCRF=Check GenChk RM062X/6-31G(d) Freq
 --------------------------------------------------------------------

 Structure from the checkpoint file:  "takemoto_OPLS3e_1_opt_hess.chk"
 ----------
 Structure1
 ----------
 Charge =  0 Multiplicity = 1

                         Standard orientation:
 ---------------------------------------------------------------------
 Center     Atomic      Atomic             Coordinates (Angstroms)
 Number     Number       Type             X           Y           Z
 ---------------------------------------------------------------------
      1          6           0       -2.499946   -1.558293   -0.022854
      2          6           0       -3.486283   -0.614271    0.205757
      3          6           0       -3.214907    0.751353    0.126099
      4          6           0       -1.928420    1.141637   -0.208384
      5          6           0       -0.921273    0.214412   -0.468557
      6          6           0       -1.201255   -1.150290   -0.361487
      7          1           0       -2.727724   -2.615937    0.059695
      8          6           0       -4.881993   -1.039749    0.570835
      9          1           0       -3.991653    1.484797    0.312712
     10          6           0       -1.568237    2.599564   -0.275836
     11          1           0        0.064962    0.573480   -0.753063
     12          7           0       -0.256995   -2.149495   -0.643034
     13          9           0       -2.648864    3.382918   -0.359966
     14          9           0       -0.789891    2.863989   -1.338925
     15          9           0       -0.879627    2.982911    0.810903
     16          9           0       -5.215441   -0.605605    1.795008
     17          9           0       -5.782166   -0.527339   -0.280171
     18          9           0       -5.024788   -2.370174    0.560663
     19          1           0       -0.606429   -3.000058   -1.066335
     20          6           0        1.116851   -2.097479   -0.590849
     21         16           0        2.015420   -3.241531   -1.439137
     22          7           0        1.648937   -1.129420    0.162379
     23          1           0        1.032229   -0.504589    0.668881
     24          6           0        5.324471   -1.231460    1.191978
     25          6           0        3.843940   -1.615920    1.224416
     26          6           0        3.062826   -0.783874    0.203457
     27          6           0        3.197681    0.714785    0.512154
     28          6           0        4.685337    1.097711    0.438065
     29          6           0        5.509035    0.268805    1.430019
     30          1           0        5.740508   -1.498435    0.211246
     31          1           0        5.878634   -1.808659    1.938953
     32          1           0        3.426981   -1.434510    2.224473
     33          1           0        3.706429   -2.676058    0.992697
     34          1           0        3.472310   -0.998583   -0.790824
     35          7           0        2.269926    1.514077   -0.296847
     36          1           0        2.872676    0.861163    1.555694
     37          1           0        5.057355    0.925141   -0.580692
     38          1           0        4.807489    2.164969    0.650158
     39          1           0        5.188661    0.513678    2.452009
     40          1           0        6.567046    0.540745    1.356547
     41          6           0        2.485419    1.418503   -1.735272
     42          6           0        2.229993    2.907100    0.126114
     43          1           0        3.455379    1.828226   -2.061622
     44          1           0        2.416279    0.377375   -2.066064
     45          1           0        1.694644    1.982348   -2.239721
     46          1           0        3.159306    3.456577   -0.096257
     47          1           0        1.407782    3.412549   -0.384803
     48          1           0        2.044906    2.958638    1.203496
 ---------------------------------------------------------------------

 SCF Done:  E(RM062X) =  -1821.42354236     A.U. after    1 cycles

 The electronic state is 1-A.
 Alpha  occ. eigenvalues --  -89.86643 -25.29794 -25.29709 -25.29650 -25.29200
 Alpha  occ. eigenvalues --  -25.29066 -25.29014 -14.81701 -14.80824 -14.76170
 Alpha  occ. eigenvalues --  -10.81298 -10.81124 -10.67907 -10.63410 -10.59957
 Alpha  occ. eigenvalues --  -10.59929 -10.59179 -10.59099 -10.58943 -10.58620
 Alpha  occ. eigenvalues --  -10.58486 -10.56549 -10.56339 -10.54567 -10.54477
 Alpha  occ. eigenvalues --  -10.54306 -10.54250  -8.21347  -6.13477  -6.13030
 Alpha  occ. eigenvalues --   -6.12819  -1.46704  -1.46527  -1.37535  -1.37365
 Alpha  occ. eigenvalues --   -1.37037  -1.36818  -1.12371  -1.05743  -1.03193
 Alpha  occ. eigenvalues --   -1.00086  -0.93347  -0.92142  -0.89790  -0.84787
 Alpha  occ. eigenvalues --   -0.84108  -0.82209  -0.81473  -0.81048  -0.80196
 Alpha  occ. eigenvalues --   -0.75094  -0.74112  -0.73787  -0.72127  -0.70129
 Alpha  occ. eigenvalues --   -0.69335  -0.69063  -0.68823  -0.68288  -0.66988
 Alpha  occ. eigenvalues --   -0.66653  -0.65542  -0.63305  -0.61505  -0.60396
 Alpha  occ. eigenvalues --   -0.59051  -0.57979  -0.57252  -0.56904  -0.56786
 Alpha  occ. eigenvalues --   -0.56596  -0.55484  -0.54896  -0.53709  -0.53632
 Alpha  occ. eigenvalues --   -0.53040  -0.52697  -0.52641  -0.52069  -0.51727
 Alpha  occ. eigenvalues --   -0.50945  -0.50632  -0.50488  -0.49887  -0.49598
 Alpha  occ. eigenvalues --   -0.48937  -0.48685  -0.47179  -0.46603  -0.46137
 Alpha  occ. eigenvalues --   -0.45171  -0.44603  -0.43751  -0.43480  -0.42970
 Alpha  occ. eigenvalues --   -0.42492  -0.41103  -0.40711  -0.39197  -0.38920
 Alpha  occ. eigenvalues --   -0.37388  -0.36390  -0.34707  -0.30071  -0.28281
 Alpha  occ. eigenvalues --   -0.27422  -0.26633
 Alpha virt. eigenvalues --   -0.01895  -0.01451   0.04433   0.10618   0.11262
 Alpha virt. eigenvalues --    0.12196   0.12929   0.14590   0.14784   0.15611
 Alpha virt. eigenvalues --    0.16285   0.17241   0.17481   0.17958   0.18628

 Mulliken charges:
               1
     1  C   -0.198791
     2  C   -0.087185
     3  C   -0.187543
     4  C   -0.092527
     5  C   -0.193974
     6  C    0.287668
     7  H    0.214299
     8  C    0.840609
     9  H    0.221628
    10  C    0.841671
    11  H    0.247277
    12  N   -0.737591
    13  F   -0.273466
    14  F   -0.274929
    15  F   -0.269128
    16  F   -0.273166
    17  F   -0.274154
    18  F   -0.276536
    19  H    0.394320
    20  C    0.376262
    21  S   -0.342181
    22  N   -0.609030
    23  H    0.376339
    24  C   -0.308907
    25  C   -0.285787
    26  C    0.007398
    27  C   -0.000009
    28  C   -0.315213
    29  C   -0.303826
    30  H    0.160789
    31  H    0.166067
    32  H    0.146410
    33  H    0.189795
    34  H    0.189183
    35  N   -0.453303
    36  H    0.145658
    37  H    0.158908
    38  H    0.166412
    39  H    0.151105
    40  H    0.164746
    41  C   -0.350239
    42  C   -0.330843
    43  H    0.154212
    44  H    0.180796
    45  H    0.174102
    46  H    0.142833
    47  H    0.172458
    48  H    0.167384
 Sum of Mulliken charges =  -0.00000

 Dipole moment (field-independent basis, Debye):
    X=              1.0353    Y=              3.0343    Z=              2.1335  Tot=              3.8510
 Quadrupole moment (field-independent basis, Debye-Ang):
   XX=           -164.2487   YY=           -176.5145   ZZ=           -166.8154
   XY=             13.7364   XZ=              8.6461   YZ=             -6.0785

  Exact polarizability:     303.814     -18.615     263.052     -10.492      19.570     171.084
 Approx polarizability:     292.264     -20.589     286.705     -21.504      23.422     207.130

                      1                      2                      3
                      A                      A                      A
 Frequencies --      9.1780                14.7816                20.8688
 Red. masses --     18.0062                 7.4717                 5.0453
 Frc consts  --      0.0009                 0.0010                 0.0013
 IR Inten    --      0.0765                 0.4143                 0.4096

                      4                      5                      6
                      A                      A                      A
 Frequencies --     42.0540                55.4404                57.6427
 Red. masses --      9.9794                10.3007                 7.8484
 Frc consts  --      0.0104                 0.0187                 0.0154
 IR Inten    --      7.1852                 0.9895                 0.3247

                      7                      8                      9
                      A                      A                      A
 Frequencies --     75.1561                86.8107                94.5288
 Red. masses --      3.7508                 5.1151                 2.6362
 Frc consts  --      0.0125                 0.0227                 0.0139
 IR Inten    --      1.8524                 1.1485                 0.1405

                     10                     11                     12
                      A                      A                      A
 Frequencies --    103.4658               112.6071               132.8200
 Red. masses --      7.2658                11.0317                 3.2230
 Frc consts  --      0.0458                 0.0824                 0.0335
 IR Inten    --      1.9466                 1.1649                 2.3860

                     13                     14                     15
                      A                      A                      A
 Frequencies --    154.8752               161.0947               190.9869
 Red. masses --      7.1252                 5.9750                 4.2381
 Frc consts  --      0.1007                 0.0914                 0.0911
 IR Inten    --      0.3015                 3.9225                 2.5076

                     16                     17                     18
                      A                      A                      A
 Frequencies --    208.7916               229.2139               248.8440
 Red. masses --      3.3269                 4.6447                 8.8193
 Frc consts  --      0.0855                 0.1438                 0.3218
 IR Inten    --      1.5587                 3.9645                 0.6367

                     19                     20                     21
                      A                      A                      A
 Frequencies --    258.0195               270.1247               287.4673
 Red. masses --      1.1818                 1.3332                 9.1322
 Frc consts  --      0.0464                 0.0573                 0.4446
 IR Inten    --      0.2264                 0.1538                 2.2964

                     22                     23                     24
                      A                      A                      A
 Frequencies --    295.4633               297.5030               303.7192
 Red. masses --      2.8598                 3.6037                 2.8972
 Frc consts  --      0.1471                 0.1879                 0.1575
 IR Inten    --      0.4531                 1.4043                 0.7581

                     25                     26                     27
                      A                      A                      A
 Frequencies --    321.5737               331.5136               348.9998
 Red. masses --      5.2633                 1.8851                 8.5210
 Frc consts  --      0.3207                 0.1221                 0.6115
 IR Inten    --      5.0212                 0.5678                 3.5411

                     28                     29                     30
                      A                      A                      A
 Frequencies --    367.3809               398.3168               408.9918
 Red. masses --      6.9678                 3.1109                 7.5942
 Frc consts  --      0.5541                 0.2908                 0.7484
 IR Inten    --     19.5330                 3.3956                 5.5963

                     31                     32                     33
                      A                      A                      A
 Frequencies --    435.1295               448.9682               453.0035
 Red. masses --      5.3337                 2.7336                 2.7912
 Frc consts  --      0.5950                 0.3247                 0.3375
 IR Inten    --      8.1085                14.6420                 2.5656

                     34                     35                     36
                      A                      A                      A
 Frequencies --    467.7986               490.3856               501.6764
 Red. masses --      3.4729                 3.7787                 2.7404
 Frc consts  --      0.4478                 0.5354                 0.4064
 IR Inten    --      2.1872                10.3340                78.2924

                     37                     38                     39
                      A                      A                      A
 Frequencies --    516.2313               527.1345               535.7144
 Red. masses --      2.1477                 3.4211                 2.3316
 Frc consts  --      0.3372                 0.5601                 0.3943
 IR Inten    --    112.8051                20.7731                15.6364

                     40                     41                     42
                      A                      A                      A
 Frequencies --    554.1896               577.0879               579.9897
 Red. masses --      1.7785                 2.6414                 8.3156
 Frc consts  --      0.3218                 0.5183                 1.6481
 IR Inten    --      3.2185                 9.3388                 2.6855

                     43                     44                     45
                      A                      A                      A
 Frequencies --    611.1674               621.9982               637.0437
 Red. masses --      6.3164                 6.2400                 4.7549
 Frc consts  --      1.3901                 1.4224                 1.1369
 IR Inten    --     24.2296                19.7231                 3.0208

                     46                     47                     48
                      A                      A                      A
 Frequencies --    646.0479               671.0627               689.6985
 Red. masses --      6.4146                 7.5010                 8.5874
 Frc consts  --      1.5774                 1.9902                 2.4067
 IR Inten    --     25.4186                27.9095                13.6371

                     49                     50                     51
                      A                      A                      A
 Frequencies --    692.8607               726.9104               753.0419
 Red. masses --     11.2765                 2.5979                13.8267
 Frc consts  --      3.1894                 0.8088                 4.6196
 IR Inten    --     38.4014                13.6798                 6.7263

                     52                     53                     54
                      A                      A                      A
 Frequencies --    805.5470               826.3386               864.7006
 Red. masses --      1.7883                 2.8189                 2.2279
 Frc consts  --      0.6837                 1.1341                 0.9815
 IR Inten    --      5.0903                 8.2503                 7.2112

                     55                     56                     57
                      A                      A                      A
 Frequencies --    872.0601               891.7889               904.4886
 Red. masses --      2.9376                 5.5634                 1.7226
 Frc consts  --      1.3162                 2.6068                 0.8303
 IR Inten    --      8.1281                37.5154                 5.1980

                     58                     59                     60
                      A                      A                      A
 Frequencies --    909.7250               933.4728               939.4536
 Red. masses --      1.5575                 1.4597                 2.0633
 Frc consts  --      0.7595                 0.7494                 1.0729
 IR Inten    --     44.1095                 9.2157                20.4610

                     61                     62                     63
                      A                      A                      A
 Frequencies --    949.1559               980.7949               984.5622
 Red. masses --      1.4058                 2.0468                 3.0847
 Frc consts  --      0.7462                 1.1600                 1.7618
 IR Inten    --      1.8598                10.6745                19.8500

                     64                     65                     66
                      A                      A                      A
 Frequencies --    986.5686              1018.2152              1075.8691
 Red. masses --      3.6077                 5.8835                 1.4157
 Frc consts  --      2.0689                 3.5939                 0.9655
 IR Inten    --     13.0174                 3.4315                 1.9539

                     67                     68                     69
                      A                      A                      A
 Frequencies --   1079.6318              1085.5837              1101.9433
 Red. masses --      1.6839                 1.4547                 1.7524
 Frc consts  --      1.1565                 1.0101                 1.2537
 IR Inten    --     13.3862                14.8628                47.4641

                     70                     71                     72
                      A                      A                      A
 Frequencies --   1119.1685              1132.2935              1137.2378
 Red. masses --      2.1116                 1.4161                 1.9302
 Frc consts  --      1.5583                 1.0697                 1.4708
 IR Inten    --      5.9644                 3.9664                22.5964

                     73                     74                     75
                      A                      A                      A
 Frequencies --   1142.6355              1151.3648              1159.1615
 Red. masses --      2.0459                 2.0992                 1.9709
 Frc consts  --      1.5738                 1.6396                 1.5603
 IR Inten    --     41.8484                 2.7111                17.8243

                     76                     77                     78
                      A                      A                      A
 Frequencies --   1195.4636              1207.3697              1223.1769
 Red. masses --      1.8736                 2.2796                 2.2988
 Frc consts  --      1.5776                 1.9579                 2.0264
 IR Inten    --     29.1499                22.0956               351.2477

                     79                     80                     81
                      A                      A                      A
 Frequencies --   1239.6658              1243.9243              1256.7600
 Red. masses --      1.9855                10.4519                 6.2766
 Frc consts  --      1.7977                 9.5287                 5.8409
 IR Inten    --     27.4401               196.6166               255.8188

                     82                     83                     84
                      A                      A                      A
 Frequencies --   1257.8334              1266.9717              1275.8703
 Red. masses --      1.8984                 3.2220                 3.3549
 Frc consts  --      1.7696                 3.0473                 3.2177
 IR Inten    --     77.6737               135.1024               267.3103

                     85                     86                     87
                      A                      A                      A
 Frequencies --   1281.1859              1289.4332              1297.0635
 Red. masses --      5.0955                 1.4199                 1.5663
 Frc consts  --      4.9279                 1.3910                 1.5526
 IR Inten    --    181.7303                32.9718                 2.2311

                     88                     89                     90
                      A                      A                      A
 Frequencies --   1321.4848              1328.0747              1330.7413
 Red. masses --      1.5291                 2.3069                 2.1859
 Frc consts  --      1.5733                 2.3973                 2.2807
 IR Inten    --      9.3855               250.1039               253.9900

                     91                     92                     93
                      A                      A                      A
 Frequencies --   1338.8646              1357.8392              1371.9639
 Red. masses --      2.0975                 1.3538                 3.3813
 Frc consts  --      2.2152                 1.4706                 3.7499
 IR Inten    --    260.6198                22.6188                23.6169

                     94                     95                     96
                      A                      A                      A
 Frequencies --   1376.0612              1385.5953              1396.7070
 Red. masses --      1.4676                 1.4743                 1.5033
 Frc consts  --      1.6373                 1.6677                 1.7278
 IR Inten    --      7.6900                 3.1016                 5.8623

                     97                     98                     99
                      A                      A                      A
 Frequencies --   1401.2856              1405.9413              1428.9971
 Red. masses --      1.5733                 1.6543                 1.6213
 Frc consts  --      1.8202                 1.9266                 1.9506
 IR Inten    --     29.0528                22.0929                14.6712

                    100                    101                    102
                      A                      A                      A
 Frequencies --   1436.1494              1451.4933              1465.1420
 Red. masses --      1.8788                 4.4651                 1.1718
 Frc consts  --      2.2832                 5.5425                 1.4821
 IR Inten    --     50.2361               492.5880                 3.0973

                    103                    104                    105
                      A                      A                      A
 Frequencies --   1495.0972              1506.9451              1508.9616
 Red. masses --      1.1767                 1.0889                 1.0761
 Frc consts  --      1.5497                 1.4569                 1.4437
 IR Inten    --      3.1724                 4.1042                 7.4853

                    106                    107                    108
                      A                      A                      A
 Frequencies --   1511.2239              1513.0082              1521.8272
 Red. masses --      1.0982                 1.1165                 2.2684
 Frc consts  --      1.4777                 1.5058                 3.0952
 IR Inten    --      6.2750                11.7739               143.3314

                    109                    110                    111
                      A                      A                      A
 Frequencies --   1527.3852              1529.0489              1533.7833
 Red. masses --      1.0794                 1.0955                 1.5485
 Frc consts  --      1.4836                 1.5091                 2.1463
 IR Inten    --      9.1378                17.1149                73.5020

                    112                    113                    114
                      A                      A                      A
 Frequencies --   1535.4869              1548.5338              1573.9498
 Red. masses --      1.9378                 1.0574                 2.1974
 Frc consts  --      2.6918                 1.4939                 3.2073
 IR Inten    --     25.2912                15.9977               621.7304

                    115                    116                    117
                      A                      A                      A
 Frequencies --   1597.8793              1703.9635              1710.8774
 Red. masses --      2.7407                 6.2578                 6.7861
 Frc consts  --      4.1229                10.7051                11.7033
 IR Inten    --    535.3356                21.0312                23.9885

                    118                    119                    120
                      A                      A                      A
 Frequencies --   3020.7145              3021.6961              3026.8059
 Red. masses --      1.0641                 1.0573                 1.0671
 Frc consts  --      5.7207                 5.6877                 5.7601
 IR Inten    --     65.9821                49.6456                47.7302

                    121                    122                    123
                      A                      A                      A
 Frequencies --   3064.3148              3067.3813              3074.5632
 Red. masses --      1.0694                 1.0685                 1.0638
 Frc consts  --      5.9165                 5.9232                 5.9250
 IR Inten    --     23.8241                10.0365                32.9362

                    124                    125                    126
                      A                      A                      A
 Frequencies --   3078.0985              3103.3790              3122.2205
 Red. masses --      1.0624                 1.0835                 1.0823
 Frc consts  --      5.9308                 6.1481                 6.2159
 IR Inten    --     35.6084                21.6060                28.6588

                    127                    128                    129
                      A                      A                      A
 Frequencies --   3125.8144              3127.4616              3130.5951
 Red. masses --      1.0954                 1.0845                 1.0986
 Frc consts  --      6.3061                 6.2497                 6.3436
 IR Inten    --     45.9505                48.0407                48.7472

                    130                    131                    132
                      A                      A                      A
 Frequencies --   3135.1456              3147.0797              3160.5520
 Red. masses --      1.1006                 1.0985                 1.1036
 Frc consts  --      6.3739                 6.4099                 6.4952
 IR Inten    --     25.6703                12.2446                18.5699

                    133                    134                    135
                      A                      A                      A
 Frequencies --   3182.1685              3223.0362              3251.2909
 Red. masses --      1.1013                 1.0934                 1.0922
 Frc consts  --      6.5704                 6.6921                 6.8025
 IR Inten    --     16.6563                52.5601                 2.0176

                    136                    137                    138
                      A                      A                      A
 Frequencies --   3259.3194              3611.4032              3634.0120
 Red. masses --      1.0926                 1.0764                 1.0775
 Frc consts  --      6.8384                 8.2711                 8.3835
 IR Inten    --      3.0141                81.4134                88.7691

 - Thermochemistry -
 -------------------
 Temperature   298.150 Kelvin.  Pressure   1.00000 Atm.
 Atom     1 has atomic number  6 and mass  12.00000

 Molecular mass:   413.13604 amu.
 Principal axes and moments of inertia in atomic units:
                           1         2         3
     Eigenvalues --  7009.76544********************
           X            0.99993   0.00567   0.01000
           Y           -0.00564   0.99998  -0.00295
           Z           -0.01002   0.00290   0.99995
 This molecule is an asymmetric top.
 Rotational symmetry number  1.
 Warning -- assumption of classical behavior for rotation
           may cause significant error
 Rotational temperatures (Kelvin)      0.01236     0.00493     0.00392
 Rotational constants (GHZ):           0.25746     0.10265     0.08159
 Zero-point vibrational energy    1003626.3 (Joules/Mol)
                                  239.87245 (Kcal/Mol)
 Warning -- explicit consideration of  43 degrees of freedom as
           vibrations may cause significant error
 Vibrational temperatures:     13.21    21.27    30.03    60.51    79.77
          (Kelvin)             82.93   108.13   124.90   136.01   148.86
                              162.02   191.10   222.83   231.78   274.79
                              300.40   329.79   358.03   371.23   388.65
                              413.60   425.11   428.04   436.98   462.67
                              476.97   502.13   528.58   573.09   588.45
                              626.05   645.97   651.77   673.06   705.56
                              721.80   742.74   758.43   770.77   797.36
                              830.30   834.48   879.33   894.92   916.56
                              929.52   965.51   992.32   996.87  1045.86
                             1083.46  1159.00  1188.92  1244.11  1254.70
                             1283.09  1301.36  1308.89  1343.06  1351.66
                             1365.62  1411.15  1416.57  1419.45  1464.98
                             1547.94  1553.35  1561.91  1585.45  1610.23
                             1629.12  1636.23  1644.00  1656.56  1667.77
                             1720.01  1737.14  1759.88  1783.60  1789.73
                             1808.20  1809.74  1822.89  1835.69  1843.34
                             1855.21  1866.19  1901.32  1910.80  1914.64
                             1926.33  1953.63  1973.95  1979.85  1993.56
                             2009.55  2016.14  2022.84  2056.01  2066.30
                             2088.38  2108.01  2151.11  2168.16  2171.06
                             2174.31  2176.88  2189.57  2197.57  2199.96
                             2206.77  2209.22  2227.99  2264.56  2298.99
                             2451.62  2461.57  4346.13  4347.55  4354.90
                             4408.87  4413.28  4423.61  4428.70  4465.07
                             4492.18  4497.35  4499.72  4504.23  4510.78
                             4527.95  4547.33  4578.43  4637.23  4677.88
                             4689.43  5196.00  5228.53

 Zero-point correction=                           0.382261 (Hartree/Particle)
 Thermal correction to Energy=                    0.407918
 Thermal correction to Enthalpy=                  0.408862
 Thermal correction to Gibbs Free Energy=         0.323200
 Sum of electronic and zero-point Energies=          -1821.041281
 Sum of electronic and thermal Energies=             -1821.015625
 Sum of electronic and thermal Enthalpies=           -1821.014680
 Sum of electronic and thermal Free Energies=        -1821.100342

                     E (Thermal)             CV                S
                      KCal/Mol        Cal/Mol-Kelvin    Cal/Mol-Kelvin
 Total                  255.972             96.914            180.291
 Electronic               0.000              0.000              0.000
 Translational            0.889              2.981             43.947
 Rotational               0.889              2.981             36.254
 Vibrational            254.195             90.953            100.091
 Vibration     1          0.593              1.987              8.181
 Vibration     2          0.593              1.986              7.235
 Vibration     3          0.593              1.986              6.550
 Vibration     4          0.595              1.980              5.160
 Vibration     5          0.596              1.975              4.613
 Vibration     6          0.596              1.974              4.536
 Vibration     7          0.599              1.966              4.014
 Vibration     8          0.601              1.958              3.731
 Vibration     9          0.603              1.953              3.564
 Vibration    10          0.605              1.946              3.388
 Vibration    11          0.607              1.939              3.223
 Vibration    12          0.613              1.921              2.905
 Vibration    13          0.620              1.897              2.611
 Vibration    14          0.622              1.890              2.537
 Vibration    15          0.634              1.852              2.218
 Vibration    16          0.642              1.827              2.054
 Vibration    17          0.652              1.796              1.885
 Vibration    18          0.662              1.765              1.739
 Vibration    19          0.667              1.749              1.675
 Vibration    20          0.674              1.728              1.595
 Vibration    21          0.685              1.697              1.489
 Vibration    22          0.690              1.682              1.442
 Vibration    23          0.691              1.678              1.431
 Vibration    24          0.695              1.667              1.396
 Vibration    25          0.707              1.632              1.302
 Vibration    26          0.714              1.613              1.253
 Vibration    27          0.726              1.577              1.171
 Vibration    28          0.740              1.539              1.091
 Vibration    29          0.765              1.474              0.969
 Vibration    30          0.773              1.451              0.930
 Vibration    31          0.796              1.394              0.842
 Vibration    32          0.808              1.363              0.799
 Vibration    33          0.812              1.354              0.787
 Vibration    34          0.825              1.321              0.744
 Vibration    35          0.846              1.271              0.683
 Vibration    36          0.857              1.246              0.654
 Vibration    37          0.871              1.214              0.619
 Vibration    38          0.882              1.190              0.594
 Vibration    39          0.891              1.171              0.575
 Vibration    40          0.910              1.131              0.536
 Vibration    41          0.934              1.081              0.491
 Vibration    42          0.937              1.075              0.485
 Vibration    43          0.970              1.008              0.431

                           ! Non-Optimized Parameters !
 Normal termination of Gaussian 16 at Thu Dec 14 21:07:07 2023.
