 Gaussian 16, Revision C.01,
 Gaussian 16:  ES64L-G16RevC.01  3-Jul-2019

 ----------------------------------------------------------------------
 # m062x 6-31g(d) scrf=(iefpcm,solvent=benzene) opt=(calcfc,maxcycles=5
 0,maxstep=10) freq=noraman
 ----------------------------------------------------------------------

 -------------
 Structure1518
 -------------
 Symbolic Z-matrix:
 Charge =  1 Multiplicity = 1

 SCF Done:  E(RM062X) =  -463.489094653     A.U. after   12 cycles
 SCF Done:  E(RM062X) =  -463.494532138     A.U. after   10 cycles
 SCF Done:  E(RM062X) =  -463.497979637     A.U. after   10 cycles
 SCF Done:  E(RM062X) =  -463.498060906     A.U. after   10 cycles
 SCF Done:  E(RM062X) =  -463.499570200     A.U. after   10 cycles
 SCF Done:  E(RM062X) =  -463.499863527     A.U. after   10 cycles
 SCF Done:  E(RM062X) =  -463.500286744     A.U. after   10 cycles
 SCF Done:  E(RM062X) =  -463.499736428     A.U. after   11 cycles
 SCF Done:  E(RM062X) =  -463.500339869     A.U. after   10 cycles
 SCF Done:  E(RM062X) =  -463.500395054     A.U. after   10 cycles
 SCF Done:  E(RM062X) =  -463.500451407     A.U. after   10 cycles
 SCF Done:  E(RM062X) =  -463.500454938     A.U. after    9 cycles
 SCF Done:  E(RM062X) =  -463.500461558     A.U. after    8 cycles
 SCF Done:  E(RM062X) =  -463.500462083     A.U. after    7 cycles
 SCF Done:  E(RM062X) =  -463.500462028     A.U. after    6 cycles
 SCF Done:  E(RM062X) =  -463.500462178     A.U. after    6 cycles
 Optimization completed.
    -- Stationary point found.
 Normal termination of Gaussian 16 at Thu Dec 14 21:03:00 2023.

 --------------------------------------------------------------------
 #N Geom=AllCheck Guess=TCheck SCRF=Check GenChk RM062X/6-31G(d) Freq
 --------------------------------------------------------------------

 Structure from the checkpoint file:  "yamamoto_OPLS3e_2_opt_hess.chk"
 -------------
 Structure1518
 -------------
 Charge =  1 Multiplicity = 1

                         Standard orientation:
 ---------------------------------------------------------------------
 Center     Atomic      Atomic             Coordinates (Angstroms)
 Number     Number       Type             X           Y           Z
 ---------------------------------------------------------------------
      1          6           0       -2.656911    1.120732    0.141704
      2          7           0       -1.570177    0.540851    0.956723
      3          6           0       -1.174049   -0.697269    0.257511
      4          6           0       -2.357040   -1.132480   -0.649440
      5          6           0       -3.451009   -0.083934   -0.370597
      6          1           0       -3.239902    1.823642    0.738738
      7          1           0       -2.213887    1.676098   -0.692926
      8          6           0        0.069856   -0.367438   -0.578982
      9          1           0       -0.922909   -1.463751    0.996007
     10          1           0       -2.059491   -1.115512   -1.703535
     11          1           0       -2.686815   -2.147108   -0.421340
     12          1           0       -4.124643   -0.439151    0.415471
     13          1           0       -4.052521    0.142293   -1.253310
     14          1           0       -0.198509    0.281944   -1.416673
     15          1           0        0.563965   -1.261276   -0.967582
     16          7           0        1.023112    0.405082    0.279340
     17          6           0        2.006784    1.239776   -0.487164
     18          6           0        3.072000    0.229212   -0.906085
     19          6           0        3.105297   -0.804435    0.247190
     20          6           0        1.892880   -0.474952    1.137415
     21          1           0        2.400839    1.981102    0.212220
     22          1           0        1.495322    1.749531   -1.303977
     23          1           0        2.793038   -0.247422   -1.848866
     24          1           0        4.033813    0.719626   -1.057492
     25          1           0        4.021179   -0.727533    0.834279
     26          1           0        3.048923   -1.824192   -0.137159
     27          1           0        2.174307    0.114553    2.011159
     28          1           0        1.318321   -1.341613    1.464914
     29          1           0        0.374183    0.982120    0.855618
     30          1           0       -1.942609    0.299842    1.872694
 ---------------------------------------------------------------------

 SCF Done:  E(RM062X) =  -463.500462178     A.U. after    1 cycles

 The electronic state is 1-A.
 Alpha  occ. eigenvalues --  -14.93843 -14.82214 -10.67239 -10.67140 -10.67105
 Alpha  occ. eigenvalues --  -10.65326 -10.62480 -10.62283 -10.62249 -10.60276
 Alpha  occ. eigenvalues --  -10.59352  -1.19568  -1.09895  -0.97987  -0.92753
 Alpha  occ. eigenvalues --   -0.92309  -0.91042  -0.84700  -0.78408  -0.75581
 Alpha  occ. eigenvalues --   -0.74151  -0.72553  -0.70297  -0.66508  -0.65738
 Alpha  occ. eigenvalues --   -0.62152  -0.60243  -0.59992  -0.56717  -0.55633
 Alpha  occ. eigenvalues --   -0.55258  -0.53554  -0.53327  -0.51310  -0.49635
 Alpha  occ. eigenvalues --   -0.49531  -0.48772  -0.47445  -0.46402  -0.46040
 Alpha  occ. eigenvalues --   -0.45821  -0.44365  -0.37700
 Alpha virt. eigenvalues --    0.02166   0.04887   0.05696   0.06635   0.08099
 Alpha virt. eigenvalues --    0.09233   0.10357   0.10555   0.11744   0.12095
 Alpha virt. eigenvalues --    0.12943   0.13692   0.14694   0.15123   0.15540

 Mulliken charges:
               1
     1  C   -0.193178
     2  N   -0.635031
     3  C   -0.048623
     4  C   -0.336761
     5  C   -0.322477
     6  H    0.202080
     7  H    0.173681
     8  C   -0.191125
     9  H    0.198521
    10  H    0.181682
    11  H    0.199505
    12  H    0.181495
    13  H    0.192378
    14  H    0.217993
    15  H    0.232483
    16  N   -0.555113
    17  C   -0.197188
    18  C   -0.340563
    19  C   -0.344007
    20  C   -0.205535
    21  H    0.230759
    22  H    0.233605
    23  H    0.205225
    24  H    0.224399
    25  H    0.220748
    26  H    0.210884
    27  H    0.235176
    28  H    0.229669
    29  H    0.441490
    30  H    0.357828
 Sum of Mulliken charges =   1.00000

 Dipole moment (field-independent basis, Debye):
    X=              2.6727    Y=              0.2250    Z=              0.8399  Tot=              2.8106
 Quadrupole moment (field-independent basis, Debye-Ang):
   XX=            -41.6168   YY=            -61.3644   ZZ=            -59.8605
   XY=              1.6354   XZ=             -0.6066   YZ=             -1.2511

  Exact polarizability:     128.595      -0.374     103.119       0.853      -0.524     101.369
 Approx polarizability:     116.620      -0.227     112.367       0.662      -0.316     113.557

                      1                      2                      3
                      A                      A                      A
 Frequencies --     50.4573                92.6750                98.5317
 Red. masses --      2.7661                 2.3367                 2.5446
 Frc consts  --      0.0041                 0.0118                 0.0146
 IR Inten    --      1.0037                 1.0277                 1.7896

                      4                      5                      6
                      A                      A                      A
 Frequencies --    110.7124               149.6981               193.8591
 Red. masses --      2.3916                 2.2427                 2.8506
 Frc consts  --      0.0173                 0.0296                 0.0631
 IR Inten    --      2.8155                 0.6577                 6.4007

                      7                      8                      9
                      A                      A                      A
 Frequencies --    287.5711               301.2026               393.0684
 Red. masses --      1.9444                 2.6060                 2.2662
 Frc consts  --      0.0947                 0.1393                 0.2063
 IR Inten    --      6.1159                 3.7351                 1.2360

                     10                     11                     12
                      A                      A                      A
 Frequencies --    441.5058               511.3652               592.9370
 Red. masses --      2.1190                 2.5228                 1.7313
 Frc consts  --      0.2434                 0.3887                 0.3586
 IR Inten    --      4.4537                14.4883                 0.1853

                     13                     14                     15
                      A                      A                      A
 Frequencies --    630.4569               689.1579               705.8610
 Red. masses --      2.1379                 2.9852                 2.6314
 Frc consts  --      0.5007                 0.8353                 0.7725
 IR Inten    --      1.2336                 1.1630                 1.9967

                     16                     17                     18
                      A                      A                      A
 Frequencies --    808.2726               842.2140               850.7636
 Red. masses --      1.5370                 1.5123                 1.9721
 Frc consts  --      0.5916                 0.6320                 0.8410
 IR Inten    --      1.8573                 7.6828                 1.3319

                     19                     20                     21
                      A                      A                      A
 Frequencies --    861.9596               886.1859               892.9224
 Red. masses --      2.4320                 1.7796                 2.1059
 Frc consts  --      1.0646                 0.8234                 0.9893
 IR Inten    --     44.6029                10.6830                14.8134

                     22                     23                     24
                      A                      A                      A
 Frequencies --    903.9495               922.6476               938.4217
 Red. masses --      1.8814                 2.6129                 2.5281
 Frc consts  --      0.9058                 1.3105                 1.3117
 IR Inten    --     53.6064                 0.6757                 0.1822

                     25                     26                     27
                      A                      A                      A
 Frequencies --    949.7150               973.3698               975.6524
 Red. masses --      2.1405                 1.8706                 1.7721
 Frc consts  --      1.1375                 1.0442                 0.9939
 IR Inten    --      3.1879                 5.8986                 9.4434

                     28                     29                     30
                      A                      A                      A
 Frequencies --   1016.2094              1036.3416              1053.4032
 Red. masses --      2.1073                 2.0676                 1.8989
 Frc consts  --      1.2822                 1.3084                 1.2415
 IR Inten    --     18.9027                 4.5690                 9.0498

                     31                     32                     33
                      A                      A                      A
 Frequencies --   1068.2043              1083.1374              1088.4521
 Red. masses --      2.1133                 1.9892                 2.1475
 Frc consts  --      1.4207                 1.3750                 1.4990
 IR Inten    --      9.8440                 3.3197                 7.1947

                     34                     35                     36
                      A                      A                      A
 Frequencies --   1102.6230              1144.9754              1148.7882
 Red. masses --      1.6260                 3.1151                 1.8665
 Frc consts  --      1.1647                 2.4061                 1.4513
 IR Inten    --      1.8265                39.1634                26.8205

                     37                     38                     39
                      A                      A                      A
 Frequencies --   1220.9949              1230.0605              1244.4263
 Red. masses --      1.3339                 1.4085                 1.3571
 Frc consts  --      1.1717                 1.2556                 1.2382
 IR Inten    --      8.3206                 7.2546                 2.3451

                     40                     41                     42
                      A                      A                      A
 Frequencies --   1254.4789              1262.8206              1271.7658
 Red. masses --      1.2264                 1.2943                 1.2875
 Frc consts  --      1.1371                 1.2161                 1.2270
 IR Inten    --      1.7119                 1.6846                 2.3650

                     43                     44                     45
                      A                      A                      A
 Frequencies --   1288.8501              1312.0583              1317.3922
 Red. masses --      1.2793                 1.2942                 1.3134
 Frc consts  --      1.2521                 1.3127                 1.3430
 IR Inten    --     30.3217                 2.4423                 3.3554

                     46                     47                     48
                      A                      A                      A
 Frequencies --   1334.8383              1344.0386              1347.1122
 Red. masses --      1.2894                 1.2903                 1.4023
 Frc consts  --      1.3537                 1.3733                 1.4994
 IR Inten    --     10.8909                 2.1726                 5.7756

                     49                     50                     51
                      A                      A                      A
 Frequencies --   1356.9220              1366.1012              1378.1865
 Red. masses --      1.3233                 1.2888                 1.3031
 Frc consts  --      1.4355                 1.4171                 1.4582
 IR Inten    --      6.0170                 8.5503                14.6600

                     52                     53                     54
                      A                      A                      A
 Frequencies --   1394.4526              1407.9996              1418.6407
 Red. masses --      1.3883                 1.3674                 1.2978
 Frc consts  --      1.5905                 1.5972                 1.5389
 IR Inten    --      8.1617                17.5049                13.4165

                     55                     56                     57
                      A                      A                      A
 Frequencies --   1469.0548              1475.8667              1498.9237
 Red. masses --      1.2592                 1.2877                 1.2579
 Frc consts  --      1.6011                 1.6525                 1.6651
 IR Inten    --    119.0347                50.1191                35.9116

                     58                     59                     60
                      A                      A                      A
 Frequencies --   1509.4430              1511.9760              1520.2696
 Red. masses --      1.0816                 1.0874                 1.0944
 Frc consts  --      1.4520                 1.4646                 1.4903
 IR Inten    --      5.6179                 9.1913                 3.5531

                     61                     62                     63
                      A                      A                      A
 Frequencies --   1524.2554              1529.3052              1533.4132
 Red. masses --      1.0898                 1.0801                 1.0906
 Frc consts  --      1.4918                 1.4883                 1.5109
 IR Inten    --     17.7472                17.2210                 5.5299

                     64                     65                     66
                      A                      A                      A
 Frequencies --   1543.0615              1553.2757              3094.0062
 Red. masses --      1.0967                 1.0987                 1.0697
 Frc consts  --      1.5385                 1.5618                 6.0332
 IR Inten    --      6.1203                 4.5323                29.7313

                     67                     68                     69
                      A                      A                      A
 Frequencies --   3102.8257              3112.1031              3125.4475
 Red. masses --      1.0693                 1.0635                 1.0618
 Frc consts  --      6.0652                 6.0686                 6.1110
 IR Inten    --     14.2986                24.2626                 4.4408

                     70                     71                     72
                      A                      A                      A
 Frequencies --   3130.2466              3134.8935              3136.2765
 Red. masses --      1.0665                 1.0621                 1.0838
 Frc consts  --      6.1572                 6.1497                 6.2807
 IR Inten    --      7.5556                 6.7511                15.4302

                     73                     74                     75
                      A                      A                      A
 Frequencies --   3144.2778              3145.6774              3169.9904
 Red. masses --      1.0616                 1.0629                 1.0987
 Frc consts  --      6.1839                 6.1970                 6.5048
 IR Inten    --      5.0564                 8.2211                11.3187

                     76                     77                     78
                      A                      A                      A
 Frequencies --   3174.6692              3179.8101              3184.3484
 Red. masses --      1.0993                 1.1043                 1.1048
 Frc consts  --      6.5280                 6.5788                 6.6005
 IR Inten    --     14.4045                26.7621                 1.4563

                     79                     80                     81
                      A                      A                      A
 Frequencies --   3187.6738              3194.5737              3201.9456
 Red. masses --      1.1084                 1.1064                 1.1088
 Frc consts  --      6.6358                 6.6523                 6.6977
 IR Inten    --     33.5722                 3.1081                 2.8842

                     82                     83                     84
                      A                      A                      A
 Frequencies --   3203.5577              3209.1806              3546.0115
 Red. masses --      1.0877                 1.1021                 1.0758
 Frc consts  --      6.5771                 6.6877                 7.9701
 IR Inten    --    274.8029               121.3094                13.1962

 - Thermochemistry -
 -------------------
 Temperature   298.150 Kelvin.  Pressure   1.00000 Atm.
 Atom     1 has atomic number  6 and mass  12.00000

 Molecular mass:   155.15482 amu.
 Principal axes and moments of inertia in atomic units:
                           1         2         3
     Eigenvalues --   666.097223188.249213268.59324
           X            1.00000  -0.00047   0.00140
           Y            0.00053   0.99929  -0.03780
           Z           -0.00138   0.03780   0.99928
 This molecule is an asymmetric top.
 Rotational symmetry number  1.
 Warning -- assumption of classical behavior for rotation
           may cause significant error
 Rotational temperatures (Kelvin)      0.13003     0.02717     0.02650
 Rotational constants (GHZ):           2.70943     0.56606     0.55215
 Zero-point vibrational energy     757204.9 (Joules/Mol)
                                  180.97631 (Kcal/Mol)
 Warning -- explicit consideration of  12 degrees of freedom as
           vibrations may cause significant error
 Vibrational temperatures:     72.60   133.34   141.77   159.29   215.38
          (Kelvin)            278.92   413.75   433.36   565.54   635.23
                              735.74   853.10   907.09   991.54  1015.58
                             1162.92  1211.76  1224.06  1240.17  1275.02
                             1284.72  1300.58  1327.48  1350.18  1366.43
                             1400.46  1403.75  1462.10  1491.06  1515.61
                             1536.91  1558.39  1566.04  1586.43  1647.36
                             1652.85  1756.74  1769.78  1790.45  1804.92
                             1816.92  1829.79  1854.37  1887.76  1895.43
                             1920.53  1933.77  1938.19  1952.31  1965.51
                             1982.90  2006.31  2025.80  2041.11  2113.64
                             2123.44  2156.62  2171.75  2175.40  2187.33
                             2193.06  2200.33  2206.24  2220.12  2234.82
                             4451.58  4464.27  4477.62  4496.82  4503.73
                             4510.41  4512.40  4523.91  4525.93  4560.91
                             4567.64  4575.04  4581.57  4586.35  4596.28
                             4606.89  4609.21  4617.30  5101.92

 Zero-point correction=                           0.288404 (Hartree/Particle)
 Thermal correction to Energy=                    0.298823
 Thermal correction to Enthalpy=                  0.299767
 Thermal correction to Gibbs Free Energy=         0.251740
 Sum of electronic and zero-point Energies=           -463.212058
 Sum of electronic and thermal Energies=              -463.201640
 Sum of electronic and thermal Enthalpies=            -463.200695
 Sum of electronic and thermal Free Energies=         -463.248722

                     E (Thermal)             CV                S
                      KCal/Mol        Cal/Mol-Kelvin    Cal/Mol-Kelvin
 Total                  187.514             40.718            101.081
 Electronic               0.000              0.000              0.000
 Translational            0.889              2.981             41.027
 Rotational               0.889              2.981             30.319
 Vibrational            185.737             34.757             29.735
 Vibration     1          0.595              1.977              4.799
 Vibration     2          0.602              1.954              3.603
 Vibration     3          0.604              1.950              3.483
 Vibration     4          0.607              1.941              3.256
 Vibration     5          0.618              1.903              2.676
 Vibration     6          0.635              1.848              2.191
 Vibration     7          0.685              1.697              1.488
 Vibration     8          0.693              1.671              1.410
 Vibration     9          0.760              1.485              0.988
 Vibration    10          0.801              1.380              0.822
 Vibration    11          0.866              1.225              0.630
 Vibration    12          0.950              1.047              0.462

 Optimization completed.
    -- Stationary point found.
 Normal termination of Gaussian 16 at Thu Dec 14 21:05:28 2023.
