 Gaussian 16, Revision C.01,
 Gaussian 16:  ES64L-G16RevC.01  3-Jul-2019

 ----------------------------------------------------------------------
 # m062x 6-31g(d) scrf=(iefpcm,solvent=benzene) opt=(maxcycles=50,maxst
 ep=10) freq=noraman
 ----------------------------------------------------------------------

 -------------
 Structure1518
 -------------
 Symbolic Z-matrix:
 Charge =  1 Multiplicity = 1

 SCF Done:  E(RM062X) =  -463.489094653     A.U. after   12 cycles
 SCF Done:  E(RM062X) =  -463.495051748     A.U. after   10 cycles
 SCF Done:  E(RM062X) =  -463.498852480     A.U. after   11 cycles
 SCF Done:  E(RM062X) =  -463.499204787     A.U. after   10 cycles
 SCF Done:  E(RM062X) =  -463.499718063     A.U. after   10 cycles
 SCF Done:  E(RM062X) =  -463.499890446     A.U. after    9 cycles
 SCF Done:  E(RM062X) =  -463.499974811     A.U. after    9 cycles
 SCF Done:  E(RM062X) =  -463.499981688     A.U. after    8 cycles
 SCF Done:  E(RM062X) =  -463.499988385     A.U. after    8 cycles
 SCF Done:  E(RM062X) =  -463.500007497     A.U. after    8 cycles
 SCF Done:  E(RM062X) =  -463.500448034     A.U. after    9 cycles
 SCF Done:  E(RM062X) =  -463.500455151     A.U. after    8 cycles
 SCF Done:  E(RM062X) =  -463.500444413     A.U. after    9 cycles
 SCF Done:  E(RM062X) =  -463.500460211     A.U. after    9 cycles
 SCF Done:  E(RM062X) =  -463.500449684     A.U. after    9 cycles
 SCF Done:  E(RM062X) =  -463.500459492     A.U. after    8 cycles
 SCF Done:  E(RM062X) =  -463.500461207     A.U. after    8 cycles
 SCF Done:  E(RM062X) =  -463.500460918     A.U. after    8 cycles
 SCF Done:  E(RM062X) =  -463.500462167     A.U. after    7 cycles
 Optimization completed.
    -- Stationary point found.
 Normal termination of Gaussian 16 at Mon Dec 11 15:02:20 2023.

 --------------------------------------------------------------------
 #N Geom=AllCheck Guess=TCheck SCRF=Check GenChk RM062X/6-31G(d) Freq
 --------------------------------------------------------------------

 Structure from the checkpoint file:  "yamamoto_OPLS3e_2_opt_freq.chk"
 -------------
 Structure1518
 -------------
 Charge =  1 Multiplicity = 1

                         Standard orientation:
 ---------------------------------------------------------------------
 Center     Atomic      Atomic             Coordinates (Angstroms)
 Number     Number       Type             X           Y           Z
 ---------------------------------------------------------------------
      1          6           0       -2.656647    1.120809    0.141664
      2          7           0       -1.570183    0.540673    0.956840
      3          6           0       -1.174104   -0.697433    0.257612
      4          6           0       -2.357065   -1.132427   -0.649489
      5          6           0       -3.450904   -0.083714   -0.370728
      6          1           0       -3.239609    1.823808    0.738622
      7          1           0       -2.213417    1.676111   -0.692902
      8          6           0        0.069899   -0.367677   -0.578804
      9          1           0       -0.923163   -1.464012    0.996073
     10          1           0       -2.059401   -1.115477   -1.703553
     11          1           0       -2.686994   -2.147026   -0.421466
     12          1           0       -4.124674   -0.438810    0.415269
     13          1           0       -4.052301    0.142621   -1.253498
     14          1           0       -0.198431    0.281512   -1.416648
     15          1           0        0.564072   -1.261586   -0.967174
     16          7           0        1.023088    0.405040    0.279438
     17          6           0        2.006620    1.239823   -0.487128
     18          6           0        3.071868    0.229330   -0.906158
     19          6           0        3.105178   -0.804469    0.246982
     20          6           0        1.893009   -0.474825    1.137453
     21          1           0        2.400682    1.981192    0.212211
     22          1           0        1.495071    1.749504   -1.303925
     23          1           0        2.792917   -0.247179   -1.849003
     24          1           0        4.033665    0.719788   -1.057537
     25          1           0        4.021193   -0.727842    0.833903
     26          1           0        3.048491   -1.824161   -0.137497
     27          1           0        2.174647    0.114807    2.011030
     28          1           0        1.318514   -1.341418    1.465240
     29          1           0        0.374105    0.982017    0.855774
     30          1           0       -1.942832    0.299661    1.872718
 ---------------------------------------------------------------------

 SCF Done:  E(RM062X) =  -463.500462167     A.U. after    1 cycles

 The electronic state is 1-A.
 Alpha  occ. eigenvalues --  -14.93843 -14.82215 -10.67239 -10.67140 -10.67105
 Alpha  occ. eigenvalues --  -10.65326 -10.62480 -10.62283 -10.62249 -10.60276
 Alpha  occ. eigenvalues --  -10.59352  -1.19569  -1.09896  -0.97987  -0.92753
 Alpha  occ. eigenvalues --   -0.92309  -0.91042  -0.84701  -0.78407  -0.75581
 Alpha  occ. eigenvalues --   -0.74152  -0.72553  -0.70297  -0.66508  -0.65739
 Alpha  occ. eigenvalues --   -0.62152  -0.60244  -0.59992  -0.56717  -0.55633
 Alpha  occ. eigenvalues --   -0.55258  -0.53554  -0.53327  -0.51310  -0.49635
 Alpha  occ. eigenvalues --   -0.49531  -0.48772  -0.47445  -0.46402  -0.46040
 Alpha  occ. eigenvalues --   -0.45821  -0.44365  -0.37700
 Alpha virt. eigenvalues --    0.02166   0.04887   0.05696   0.06636   0.08099
 Alpha virt. eigenvalues --    0.09234   0.10358   0.10554   0.11745   0.12095
 Alpha virt. eigenvalues --    0.12943   0.13692   0.14694   0.15122   0.15539

 Mulliken charges:
               1
     1  C   -0.193187
     2  N   -0.635028
     3  C   -0.048608
     4  C   -0.336766
     5  C   -0.322471
     6  H    0.202083
     7  H    0.173676
     8  C   -0.191136
     9  H    0.198530
    10  H    0.181679
    11  H    0.199503
    12  H    0.181498
    13  H    0.192375
    14  H    0.217995
    15  H    0.232482
    16  N   -0.555106
    17  C   -0.197188
    18  C   -0.340569
    19  C   -0.344008
    20  C   -0.205540
    21  H    0.230763
    22  H    0.233603
    23  H    0.205227
    24  H    0.224397
    25  H    0.220754
    26  H    0.210876
    27  H    0.235174
    28  H    0.229667
    29  H    0.441493
    30  H    0.357834
 Sum of Mulliken charges =   1.00000

 Dipole moment (field-independent basis, Debye):
    X=              2.6722    Y=              0.2251    Z=              0.8400  Tot=              2.8102
 Quadrupole moment (field-independent basis, Debye-Ang):
   XX=            -41.6176   YY=            -61.3636   ZZ=            -59.8611
   XY=              1.6353   XZ=             -0.6069   YZ=             -1.2512

  Exact polarizability:     128.593      -0.373     103.120       0.853      -0.524     101.368
 Approx polarizability:     116.620      -0.226     112.368       0.661      -0.316     113.556

                      1                      2                      3
                      A                      A                      A
 Frequencies --     50.2741                92.3597                98.3904
 Red. masses --      2.7655                 2.3359                 2.5604
 Frc consts  --      0.0041                 0.0117                 0.0146
 IR Inten    --      1.0035                 1.0324                 1.8001

                      4                      5                      6
                      A                      A                      A
 Frequencies --    110.8432               149.5001               193.8363
 Red. masses --      2.3801                 2.2418                 2.8497
 Frc consts  --      0.0172                 0.0295                 0.0631
 IR Inten    --      2.7925                 0.6568                 6.4110

                      7                      8                      9
                      A                      A                      A
 Frequencies --    287.7225               301.1799               393.0875
 Red. masses --      1.9454                 2.6050                 2.2655
 Frc consts  --      0.0949                 0.1392                 0.2062
 IR Inten    --      6.1286                 3.7330                 1.2330

                     10                     11                     12
                      A                      A                      A
 Frequencies --    441.4461               511.4221               592.9369
 Red. masses --      2.1193                 2.5223                 1.7311
 Frc consts  --      0.2433                 0.3887                 0.3586
 IR Inten    --      4.4527                14.4875                 0.1841

                     13                     14                     15
                      A                      A                      A
 Frequencies --    630.4943               689.1199               705.8351
 Red. masses --      2.1382                 2.9833                 2.6313
 Frc consts  --      0.5008                 0.8347                 0.7724
 IR Inten    --      1.2335                 1.1636                 1.9984

                     16                     17                     18
                      A                      A                      A
 Frequencies --    808.2688               842.2253               850.7387
 Red. masses --      1.5370                 1.5122                 1.9736
 Frc consts  --      0.5916                 0.6320                 0.8416
 IR Inten    --      1.8542                 7.6596                 1.3365

                     19                     20                     21
                      A                      A                      A
 Frequencies --    862.0047               886.2042               892.9280
 Red. masses --      2.4302                 1.7789                 2.1045
 Frc consts  --      1.0639                 0.8231                 0.9886
 IR Inten    --     44.5202                10.7010                14.8026

                     22                     23                     24
                      A                      A                      A
 Frequencies --    903.9583               922.6479               938.4102
 Red. masses --      1.8830                 2.6140                 2.5277
 Frc consts  --      0.9065                 1.3111                 1.3115
 IR Inten    --     53.6924                 0.6761                 0.1818

                     25                     26                     27
                      A                      A                      A
 Frequencies --    949.7275               973.3665               975.6182
 Red. masses --      2.1399                 1.8708                 1.7718
 Frc consts  --      1.1372                 1.0443                 0.9936
 IR Inten    --      3.1812                 5.8006                 9.5279

                     28                     29                     30
                      A                      A                      A
 Frequencies --   1016.1845              1036.3140              1053.3862
 Red. masses --      2.1077                 2.0678                 1.8978
 Frc consts  --      1.2823                 1.3084                 1.2407
 IR Inten    --     18.9321                 4.5634                 9.0464

                     31                     32                     33
                      A                      A                      A
 Frequencies --   1068.1940              1083.0474              1088.4194
 Red. masses --      2.1142                 1.9879                 2.1465
 Frc consts  --      1.4214                 1.3738                 1.4982
 IR Inten    --      9.8574                 3.2543                 7.2529

                     34                     35                     36
                      A                      A                      A
 Frequencies --   1102.6240              1144.9769              1148.7572
 Red. masses --      1.6263                 3.1084                 1.8683
 Frc consts  --      1.1649                 2.4009                 1.4526
 IR Inten    --      1.8286                38.9668                27.0027

                     37                     38                     39
                      A                      A                      A
 Frequencies --   1220.9400              1230.0536              1244.3670
 Red. masses --      1.3345                 1.4083                 1.3567
 Frc consts  --      1.1721                 1.2554                 1.2378
 IR Inten    --      8.2929                 7.2742                 2.3362

                     40                     41                     42
                      A                      A                      A
 Frequencies --   1254.4267              1262.7924              1271.7140
 Red. masses --      1.2269                 1.2938                 1.2873
 Frc consts  --      1.1375                 1.2156                 1.2266
 IR Inten    --      1.7192                 1.6932                 2.3296

                     43                     44                     45
                      A                      A                      A
 Frequencies --   1288.7741              1312.0470              1317.2492
 Red. masses --      1.2803                 1.2945                 1.3137
 Frc consts  --      1.2529                 1.3130                 1.3430
 IR Inten    --     30.2853                 2.4609                 3.3701

                     46                     47                     48
                      A                      A                      A
 Frequencies --   1334.8090              1344.0223              1347.0702
 Red. masses --      1.2893                 1.2904                 1.4027
 Frc consts  --      1.3534                 1.3734                 1.4997
 IR Inten    --     10.8352                 2.1472                 5.7937

                     49                     50                     51
                      A                      A                      A
 Frequencies --   1356.8790              1366.0463              1378.1774
 Red. masses --      1.3232                 1.2888                 1.3030
 Frc consts  --      1.4354                 1.4170                 1.4581
 IR Inten    --      6.0092                 8.5628                14.6753

                     52                     53                     54
                      A                      A                      A
 Frequencies --   1394.4322              1407.9824              1418.6126
 Red. masses --      1.3886                 1.3677                 1.2978
 Frc consts  --      1.5908                 1.5975                 1.5389
 IR Inten    --      8.1279                17.4793                13.4913

                     55                     56                     57
                      A                      A                      A
 Frequencies --   1469.0715              1475.8613              1498.9676
 Red. masses --      1.2591                 1.2876                 1.2576
 Frc consts  --      1.6011                 1.6524                 1.6649
 IR Inten    --    119.1635                50.2797                35.7994

                     58                     59                     60
                      A                      A                      A
 Frequencies --   1509.3774              1511.9420              1520.2612
 Red. masses --      1.0817                 1.0875                 1.0944
 Frc consts  --      1.4520                 1.4647                 1.4903
 IR Inten    --      5.6944                 9.1396                 3.5415

                     61                     62                     63
                      A                      A                      A
 Frequencies --   1524.2778              1529.2539              1533.4236
 Red. masses --      1.0897                 1.0802                 1.0906
 Frc consts  --      1.4917                 1.4883                 1.5110
 IR Inten    --     17.7920                17.1581                 5.5505

                     64                     65                     66
                      A                      A                      A
 Frequencies --   1543.0907              1553.2547              3093.9734
 Red. masses --      1.0966                 1.0988                 1.0697
 Frc consts  --      1.5385                 1.5618                 6.0331
 IR Inten    --      6.1168                 4.5230                29.7471

                     67                     68                     69
                      A                      A                      A
 Frequencies --   3102.8303              3112.1400              3125.5087
 Red. masses --      1.0692                 1.0635                 1.0618
 Frc consts  --      6.0652                 6.0687                 6.1113
 IR Inten    --     14.3107                24.2312                 4.4612

                     70                     71                     72
                      A                      A                      A
 Frequencies --   3130.2404              3134.8909              3136.2542
 Red. masses --      1.0665                 1.0621                 1.0838
 Frc consts  --      6.1572                 6.1497                 6.2806
 IR Inten    --      7.5626                 6.7501                15.4287

                     73                     74                     75
                      A                      A                      A
 Frequencies --   3144.3189              3145.6604              3169.9537
 Red. masses --      1.0616                 1.0630                 1.0987
 Frc consts  --      6.1838                 6.1971                 6.5047
 IR Inten    --      5.0982                 8.1778                11.3373

                     76                     77                     78
                      A                      A                      A
 Frequencies --   3174.6465              3179.7891              3184.3260
 Red. masses --      1.0993                 1.1043                 1.1048
 Frc consts  --      6.5279                 6.5788                 6.6004
 IR Inten    --     14.4310                26.7881                 1.4415

                     79                     80                     81
                      A                      A                      A
 Frequencies --   3187.6930              3194.5549              3201.9828
 Red. masses --      1.1083                 1.1064                 1.1088
 Frc consts  --      6.6355                 6.6523                 6.6977
 IR Inten    --     34.7158                 3.1553                 2.8974

                     82                     83                     84
                      A                      A                      A
 Frequencies --   3203.2527              3209.0969              3546.0647
 Red. masses --      1.0870                 1.1030                 1.0758
 Frc consts  --      6.5717                 6.6923                 7.9704
 IR Inten    --    284.4692               110.4588                13.2000

 - Thermochemistry -
 -------------------
 Temperature   298.150 Kelvin.  Pressure   1.00000 Atm.
 Atom     1 has atomic number  6 and mass  12.00000

 Molecular mass:   155.15482 amu.
 Principal axes and moments of inertia in atomic units:
                           1         2         3
     Eigenvalues --   666.130913188.085483268.42682
           X            1.00000  -0.00047   0.00140
           Y            0.00053   0.99929  -0.03780
           Z           -0.00138   0.03780   0.99928
 This molecule is an asymmetric top.
 Rotational symmetry number  1.
 Warning -- assumption of classical behavior for rotation
           may cause significant error
 Rotational temperatures (Kelvin)      0.13003     0.02717     0.02650
 Rotational constants (GHZ):           2.70929     0.56609     0.55217
 Zero-point vibrational energy     757193.1 (Joules/Mol)
                                  180.97350 (Kcal/Mol)
 Warning -- explicit consideration of  12 degrees of freedom as
           vibrations may cause significant error
 Vibrational temperatures:     72.33   132.89   141.56   159.48   215.10
          (Kelvin)            278.89   413.97   433.33   565.57   635.14
                              735.82   853.10   907.14   991.49  1015.54
                             1162.92  1211.77  1224.02  1240.23  1275.05
                             1284.72  1300.59  1327.48  1350.16  1366.45
                             1400.46  1403.70  1462.06  1491.02  1515.59
                             1536.89  1558.26  1565.99  1586.43  1647.37
                             1652.81  1756.66  1769.77  1790.37  1804.84
                             1816.88  1829.71  1854.26  1887.74  1895.23
                             1920.49  1933.75  1938.13  1952.25  1965.44
                             1982.89  2006.28  2025.77  2041.07  2113.67
                             2123.44  2156.68  2171.66  2175.35  2187.32
                             2193.10  2200.26  2206.25  2220.16  2234.79
                             4451.54  4464.28  4477.68  4496.91  4503.72
                             4510.41  4512.37  4523.97  4525.90  4560.86
                             4567.61  4575.01  4581.53  4586.38  4596.25
                             4606.94  4608.77  4617.17  5102.00

 Zero-point correction=                           0.288400 (Hartree/Particle)
 Thermal correction to Energy=                    0.298819
 Thermal correction to Enthalpy=                  0.299764
 Thermal correction to Gibbs Free Energy=         0.251729
 Sum of electronic and zero-point Energies=           -463.212063
 Sum of electronic and thermal Energies=              -463.201643
 Sum of electronic and thermal Enthalpies=            -463.200699
 Sum of electronic and thermal Free Energies=         -463.248733

                     E (Thermal)             CV                S
                      KCal/Mol        Cal/Mol-Kelvin    Cal/Mol-Kelvin
 Total                  187.512             40.719            101.098
 Electronic               0.000              0.000              0.000
 Translational            0.889              2.981             41.027
 Rotational               0.889              2.981             30.319
 Vibrational            185.735             34.758             29.752
 Vibration     1          0.595              1.977              4.807
 Vibration     2          0.602              1.955              3.609
 Vibration     3          0.604              1.950              3.486
 Vibration     4          0.607              1.940              3.254
 Vibration     5          0.618              1.903              2.679
 Vibration     6          0.635              1.848              2.191
 Vibration     7          0.685              1.697              1.487
 Vibration     8          0.693              1.671              1.410
 Vibration     9          0.760              1.485              0.988
 Vibration    10          0.801              1.380              0.822
 Vibration    11          0.867              1.225              0.630
 Vibration    12          0.950              1.047              0.462

 Optimization completed.
    -- Stationary point found.
 Normal termination of Gaussian 16 at Mon Dec 11 15:04:49 2023.
