 Gaussian 16, Revision C.01,
 Gaussian 16:  ES64L-G16RevC.01  3-Jul-2019

 -----------------------------------------------------------
 # wb97xd def2svp scrf=(iefpcm,solvent=toluene) freq=noraman
 -----------------------------------------------------------

 --------------------------
 cyclic-1_1_opt_sqm_re7.out
 --------------------------
 Symbolic Z-matrix:
 Charge =  0 Multiplicity = 1

                         Standard orientation:
 ---------------------------------------------------------------------
 Center     Atomic      Atomic             Coordinates (Angstroms)
 Number     Number       Type             X           Y           Z
 ---------------------------------------------------------------------
      1          6           0        1.426789    0.737200    0.032410
      2          6           0       -1.070500   -1.421750    1.959750
      3          6           0        2.294080   -1.095070   -0.800050
      4          6           0       -2.069210   -0.661190    1.509190
      5          7           0        1.149740   -0.409200   -0.564180
      6          1           0       -0.903940   -1.557370    3.030110
      7          1           0       -0.396370   -1.944840    1.276320
      8          1           0        2.314200   -2.063600   -1.285270
      9          1           0       -2.764970   -0.157920    2.183420
     10          8           0        2.730039    0.861281    0.210050
     11          6           0        3.381490   -0.317209   -0.317530
     12          8           0        4.576180   -0.424869   -0.263990
     13          6           0       -2.308070   -0.473400    0.058620
     14          8           0       -1.518940   -0.774420   -0.822950
     15          8           0       -3.488830    0.062020   -0.175300
     16          6           0       -3.886901    0.350110   -1.514600
     17          1           0       -4.817310   -0.196380   -1.712120
     18          1           0       -3.108800    0.048780   -2.224730
     19          1           0       -4.070591    1.429540   -1.583070
     20          6           0        0.476509    1.702150    0.434940
     21          7           0       -0.331851    2.470240    0.753240
     22          1           0        0.169860   -0.702650   -0.766990
 ---------------------------------------------------------------------

 SCF Done:  E(RwB97XD) =  -719.240534518     A.U. after   15 cycles

 The electronic state is 1-A.
 Alpha  occ. eigenvalues --  -19.34376 -19.33290 -19.28142 -19.22779 -14.55629
 Alpha  occ. eigenvalues --  -14.47841 -10.46540 -10.44145 -10.42495 -10.37474
 Alpha  occ. eigenvalues --  -10.36809 -10.34474 -10.34191 -10.33617  -1.25495
 Alpha  occ. eigenvalues --   -1.23643  -1.14267  -1.12553  -1.08772  -1.02659
 Alpha  occ. eigenvalues --   -0.91444  -0.89546  -0.85050  -0.78489  -0.74545
 Alpha  occ. eigenvalues --   -0.73370  -0.72230  -0.66978  -0.63743  -0.63062
 Alpha  occ. eigenvalues --   -0.61213  -0.60271  -0.59843  -0.56965  -0.55639
 Alpha  occ. eigenvalues --   -0.52886  -0.52328  -0.51706  -0.50540  -0.49456
 Alpha  occ. eigenvalues --   -0.48817  -0.48109  -0.46729  -0.46067  -0.45846
 Alpha  occ. eigenvalues --   -0.44169  -0.41615  -0.40745  -0.39034  -0.36762
 Alpha  occ. eigenvalues --   -0.28376
 Alpha virt. eigenvalues --   -0.01047  -0.00226   0.05958   0.12846   0.13921
 Alpha virt. eigenvalues --    0.14356   0.15706   0.16201   0.17953   0.18626
 Alpha virt. eigenvalues --    0.19004   0.19889   0.20691   0.21401   0.21811

 Mulliken charges:
               1
     1  C    0.029069
     2  C   -0.031978
     3  C   -0.123450
     4  C   -0.107867
     5  N   -0.022977
     6  H    0.090686
     7  H    0.070985
     8  H    0.071641
     9  H    0.075534
    10  O   -0.256900
    11  C    0.257489
    12  O   -0.258785
    13  C    0.301006
    14  O   -0.331870
    15  O   -0.306291
    16  C    0.104316
    17  H    0.074013
    18  H    0.073057
    19  H    0.078583
    20  C   -0.059116
    21  N    0.076347
    22  H    0.196506
 Sum of Mulliken charges =  -0.00000

 Dipole moment (field-independent basis, Debye):
    X=             -8.0288    Y=             -3.0551    Z=             -0.8378  Tot=              8.6311
 Quadrupole moment (field-independent basis, Debye-Ang):
   XX=           -100.5679   YY=            -83.4025   ZZ=            -71.9913
   XY=              0.4273   XZ=              4.2445   YZ=             -4.9395

  Exact polarizability:     159.375     -48.365     120.721      -3.479      13.168      96.334
 Approx polarizability:     157.176     -50.601     130.980      -8.733      20.331      96.446

 ******    1 imaginary frequencies (negative Signs) ******

                      1                      2                      3
                      A                      A                      A
 Frequencies --   -115.9812                15.3946                26.4503
 Red. masses --      1.0321                 6.0102                 5.3169
 Frc consts  --      0.0082                 0.0008                 0.0022
 IR Inten    --      0.0122                 1.0373                 1.4671

                      4                      5                      6
                      A                      A                      A
 Frequencies --     47.3292                69.8712                87.4117
 Red. masses --      5.5467                 5.0066                 5.8047
 Frc consts  --      0.0073                 0.0144                 0.0261
 IR Inten    --      1.8604                 5.9200                 4.1161

                      7                      8                      9
                      A                      A                      A
 Frequencies --    119.9385               130.9267               153.1926
 Red. masses --      3.6042                10.5607                 7.9427
 Frc consts  --      0.0305                 0.1067                 0.1098
 IR Inten    --      3.1218                 2.3547                 2.6709

                     10                     11                     12
                      A                      A                      A
 Frequencies --    170.9541               197.2958               244.8482
 Red. masses --      9.7079                 2.8852                 3.1366
 Frc consts  --      0.1672                 0.0662                 0.1108
 IR Inten    --     28.5520                 2.3992                 9.1061

                     13                     14                     15
                      A                      A                      A
 Frequencies --    299.1292               387.0555               458.0425
 Red. masses --      9.7261                 4.3408                10.8277
 Frc consts  --      0.5127                 0.3832                 1.3384
 IR Inten    --      2.5591                38.7280                 9.7880

                     16                     17                     18
                      A                      A                      A
 Frequencies --    476.9155               486.0944               542.6429
 Red. masses --      3.1175                11.6331                 1.9188
 Frc consts  --      0.4178                 1.6195                 0.3329
 IR Inten    --      4.6456                 4.5293                 1.7463

                     19                     20                     21
                      A                      A                      A
 Frequencies --    563.4884               617.8575               639.0300
 Red. masses --     11.5095                 6.6211                 1.1569
 Frc consts  --      2.1532                 1.4892                 0.2783
 IR Inten    --      2.8485                 2.7802                50.5243

                     22                     23                     24
                      A                      A                      A
 Frequencies --    658.4171               686.7739               734.9948
 Red. masses --      7.9386                 3.3535                11.2007
 Frc consts  --      2.0277                 0.9319                 3.5650
 IR Inten    --      3.2879                 5.5317                26.0953

                     25                     26                     27
                      A                      A                      A
 Frequencies --    738.1396               791.1032               841.0366
 Red. masses --     11.9639                 9.9507                 4.4461
 Frc consts  --      3.8406                 3.6692                 1.8529
 IR Inten    --     31.2276                30.9382                41.0946

                     28                     29                     30
                      A                      A                      A
 Frequencies --    901.5225               994.9941              1010.8370
 Red. masses --      2.8419                 2.7159                 1.5397
 Frc consts  --      1.3608                 1.5842                 0.9269
 IR Inten    --     16.1801                84.8899                66.6482

                     31                     32                     33
                      A                      A                      A
 Frequencies --   1026.1539              1029.2883              1059.6886
 Red. masses --      1.2552                 1.1852                 4.3413
 Frc consts  --      0.7787                 0.7398                 2.8723
 IR Inten    --      0.2883                42.4254                18.4821

                     34                     35                     36
                      A                      A                      A
 Frequencies --   1077.6106              1086.1221              1182.2620
 Red. masses --      1.5841                 1.8240                 1.2741
 Frc consts  --      1.0838                 1.2678                 1.0492
 IR Inten    --     64.1828                15.5770                 0.6047

                     37                     38                     39
                      A                      A                      A
 Frequencies --   1208.8661              1223.6891              1286.0586
 Red. masses --      1.5455                 2.3628                 1.4776
 Frc consts  --      1.3307                 2.0846                 1.4399
 IR Inten    --     84.6223               114.6731                67.0878

                     40                     41                     42
                      A                      A                      A
 Frequencies --   1350.5474              1374.4930              1429.1181
 Red. masses --      2.2267                 2.1171                 1.2382
 Frc consts  --      2.3929                 2.3565                 1.4900
 IR Inten    --    441.4146               242.6226               128.8272

                     43                     44                     45
                      A                      A                      A
 Frequencies --   1471.0785              1471.7700              1480.3386
 Red. masses --      1.3155                 3.4076                 1.0404
 Frc consts  --      1.6773                 4.3489                 1.3433
 IR Inten    --     43.5050                52.0173                11.4988

                     46                     47                     48
                      A                      A                      A
 Frequencies --   1493.3388              1508.7938              1640.0200
 Red. masses --      1.4946                 3.3200                 4.0660
 Frc consts  --      1.9638                 4.4530                 6.4435
 IR Inten    --    201.9268                76.9584                68.0376

                     49                     50                     51
                      A                      A                      A
 Frequencies --   1737.5707              1797.7669              1912.4559
 Red. masses --      5.2950                 9.2438                12.4150
 Frc consts  --      9.4189                17.6022                26.7534
 IR Inten    --     56.2689               503.4181              1283.3640

                     52                     53                     54
                      A                      A                      A
 Frequencies --   2385.3597              3084.6871              3170.4503
 Red. masses --     12.6407                 1.0305                 1.1007
 Frc consts  --     42.3770                 5.7775                 6.5186
 IR Inten    --    222.6103                40.9016              1375.7906

                     55                     56                     57
                      A                      A                      A
 Frequencies --   3176.0629              3198.8231              3218.1765
 Red. masses --      1.0633                 1.1098                 1.1093
 Frc consts  --      6.3193                 6.6906                 6.7687
 IR Inten    --     29.1579                 7.9251                 0.7174

                     58                     59                     60
                      A                      A                      A
 Frequencies --   3231.6916              3284.6260              3331.3761
 Red. masses --      1.0974                 1.1181                 1.0999
 Frc consts  --      6.7524                 7.1071                 7.1919
 IR Inten    --      1.3283                 0.0769                17.6694

 - Thermochemistry -
 -------------------
 Temperature   298.150 Kelvin.  Pressure   1.00000 Atm.
 Atom     1 has atomic number  6 and mass  12.00000

 Molecular mass:   196.04841 amu.
 Principal axes and moments of inertia in atomic units:
                           1         2         3
     Eigenvalues --  1363.426295256.863505440.05067
           X            0.99995  -0.00521   0.00878
           Y            0.00626   0.99212  -0.12515
           Z           -0.00806   0.12520   0.99210
 This molecule is an asymmetric top.
 Rotational symmetry number  1.
 Warning -- assumption of classical behavior for rotation
           may cause significant error
 Rotational temperatures (Kelvin)      0.06353     0.01648     0.01592
 Rotational constants (GHZ):           1.32368     0.34331     0.33175
    1 imaginary frequencies ignored.
 Zero-point vibrational energy     418812.4 (Joules/Mol)
                                  100.09858 (Kcal/Mol)
 Warning -- explicit consideration of  19 degrees of freedom as
           vibrations may cause significant error
 Vibrational temperatures:     22.15    38.06    68.10   100.53   125.77
          (Kelvin)            172.56   188.37   220.41   245.96   283.86
                              352.28   430.38   556.89   659.02   686.18
                              699.38   780.74   810.73   888.96   919.42
                              947.32   988.11  1057.49  1062.02  1138.22
                             1210.06  1297.09  1431.57  1454.37  1476.41
                             1480.92  1524.66  1550.44  1562.69  1701.01
                             1739.29  1760.62  1850.35  1943.14  1977.59
                             2056.18  2116.55  2117.55  2129.88  2148.58
                             2170.82  2359.62  2499.98  2586.59  2751.60
                             3432.00  4438.18  4561.57  4569.65  4602.39
                             4630.24  4649.68  4725.84  4793.11

 Zero-point correction=                           0.159517 (Hartree/Particle)
 Thermal correction to Energy=                    0.173347
 Thermal correction to Enthalpy=                  0.174292
 Thermal correction to Gibbs Free Energy=         0.115423
 Sum of electronic and zero-point Energies=           -719.081017
 Sum of electronic and thermal Energies=              -719.067187
 Sum of electronic and thermal Enthalpies=            -719.066243
 Sum of electronic and thermal Free Energies=         -719.125112

                     E (Thermal)             CV                S
                      KCal/Mol        Cal/Mol-Kelvin    Cal/Mol-Kelvin
 Total                  108.777             47.397            123.899
 Electronic               0.000              0.000              0.000
 Translational            0.889              2.981             41.725
 Rotational               0.889              2.981             32.033
 Vibrational            107.000             41.436             50.141
 Vibration     1          0.593              1.986              7.154
 Vibration     2          0.593              1.985              6.079
 Vibration     3          0.595              1.979              4.926
 Vibration     4          0.598              1.968              4.157
 Vibration     5          0.601              1.958              3.717
 Vibration     6          0.609              1.933              3.101
 Vibration     7          0.612              1.922              2.932
 Vibration     8          0.619              1.899              2.632
 Vibration     9          0.626              1.878              2.425
 Vibration    10          0.637              1.844              2.158
 Vibration    11          0.660              1.771              1.767
 Vibration    12          0.692              1.675              1.422
 Vibration    13          0.755              1.498              1.011
 Vibration    14          0.816              1.343              0.772
 Vibration    15          0.833              1.301              0.718
 Vibration    16          0.842              1.281              0.694
 Vibration    17          0.898              1.156              0.560
 Vibration    18          0.919              1.110              0.517
 Vibration    19          0.978              0.994              0.420

 1\1\GINC-NODE-001\Freq\RwB97XD\def2SVP\C8H8N2O4\JP2658\30-Dec-2023\0\\
 # wb97xd def2svp scrf=(iefpcm,solvent=toluene) freq=noraman\\cyclic-1_
 1_opt_sqm_re7.out\\0,1\C,1.42679,0.7372,0.03241\C,-1.0705,-1.42175,1.9
 5975\C,2.29408,-1.09507,-0.80005\C,-2.06921,-0.66119,1.50919\N,1.14974
 ,-0.4092,-0.56418\H,-0.90394,-1.55737,3.03011\H,-0.39637,-1.94484,1.27
 632\H,2.3142,-2.0636,-1.28527\H,-2.76497,-0.15792,2.18342\O,2.73004,0.
 86128,0.21005\C,3.38149,-0.31721,-0.31753\O,4.57618,-0.42487,-0.26399\
 C,-2.30807,-0.4734,0.05862\O,-1.51894,-0.77442,-0.82295\O,-3.48883,0.0

 Normal termination of Gaussian 16 at Sat Dec 30 20:53:08 2023.
