 Gaussian 16, Revision C.01,
 Gaussian 16:  ES64L-G16RevC.01  3-Jul-2019

 -----------------------------------------------------------
 # wb97xd def2svp scrf=(iefpcm,solvent=toluene) freq=noraman
 -----------------------------------------------------------

 -------------------------
 cyclic-1_1_opt_hf_re5.out
 -------------------------
 Symbolic Z-matrix:
 Charge =  0 Multiplicity = 1

                         Standard orientation:
 ---------------------------------------------------------------------
 Center     Atomic      Atomic             Coordinates (Angstroms)
 Number     Number       Type             X           Y           Z
 ---------------------------------------------------------------------
      1          6           0       -1.705120   -0.157046    0.145169
      2          6           0        0.287750    2.972660   -0.309231
      3          6           0       -0.480985   -1.746612    1.047099
      4          6           0        1.060843    2.012123   -0.817131
      5          7           0       -1.083059   -0.548004    1.245319
      6          1           0       -0.157023    3.743589   -0.941091
      7          1           0        0.078120    3.005440    0.763499
      8          1           0        0.101577   -2.244440    1.812239
      9          1           0        1.294583    1.952784   -1.882251
     10          8           0       -1.548677   -1.060696   -0.802411
     11          6           0       -0.734983   -2.144983   -0.290221
     12          8           0       -0.442690   -3.071042   -0.995021
     13          6           0        1.647416    0.963865    0.057299
     14          8           0        1.438487    0.848484    1.244629
     15          8           0        2.433169    0.144457   -0.635531
     16          6           0        3.037613   -0.932751    0.067309
     17          1           0        3.759214   -1.381528   -0.623051
     18          1           0        2.278545   -1.677363    0.346259
     19          1           0        3.544461   -0.573749    0.973369
     20          6           0       -2.446724    1.033271   -0.023621
     21          7           0       -3.051507    2.014720   -0.143711
     22          1           0       -0.994690    0.015456    2.086399
 ---------------------------------------------------------------------

 SCF Done:  E(RwB97XD) =  -719.231875707     A.U. after   15 cycles

 The electronic state is 1-A.
 Alpha  occ. eigenvalues --  -19.35281 -19.31461 -19.25651 -19.23518 -14.57722
 Alpha  occ. eigenvalues --  -14.48507 -10.45390 -10.44041 -10.43279 -10.38067
 Alpha  occ. eigenvalues --  -10.35797 -10.35381 -10.32909 -10.32321  -1.26532
 Alpha  occ. eigenvalues --   -1.21603  -1.13450  -1.12024  -1.10132  -1.03295
 Alpha  occ. eigenvalues --   -0.90570  -0.89958  -0.83384  -0.79916  -0.76015
 Alpha  occ. eigenvalues --   -0.73101  -0.71938  -0.65253  -0.63859  -0.62485
 Alpha  occ. eigenvalues --   -0.61523  -0.58675  -0.58127  -0.57957  -0.54422
 Alpha  occ. eigenvalues --   -0.53051  -0.51354  -0.51277  -0.50777  -0.49333
 Alpha  occ. eigenvalues --   -0.48642  -0.47901  -0.47425  -0.46655  -0.44948
 Alpha  occ. eigenvalues --   -0.44758  -0.39935  -0.38004  -0.37651  -0.37541
 Alpha  occ. eigenvalues --   -0.29167
 Alpha virt. eigenvalues --   -0.02089   0.01249   0.05251   0.11607   0.13039
 Alpha virt. eigenvalues --    0.14746   0.15685   0.16561   0.17543   0.17789
 Alpha virt. eigenvalues --    0.18983   0.19802   0.21092   0.21200   0.22329

 Mulliken charges:
               1
     1  C    0.033030
     2  C   -0.012170
     3  C   -0.131194
     4  C   -0.127708
     5  N    0.008223
     6  H    0.082674
     7  H    0.068940
     8  H    0.080210
     9  H    0.065492
    10  O   -0.253091
    11  C    0.258281
    12  O   -0.252958
    13  C    0.250319
    14  O   -0.295974
    15  O   -0.320609
    16  C    0.122774
    17  H    0.067191
    18  H    0.061389
    19  H    0.056619
    20  C   -0.055776
    21  N    0.094097
    22  H    0.200242
 Sum of Mulliken charges =  -0.00000

 Dipole moment (field-independent basis, Debye):
    X=              2.1152    Y=              1.7746    Z=              4.0374  Tot=              4.8912
 Quadrupole moment (field-independent basis, Debye-Ang):
   XX=            -81.4602   YY=            -91.0477   ZZ=            -76.3305
   XY=              0.3486   XZ=             -6.0901   YZ=            -10.1450

  Exact polarizability:     109.753     -56.782     160.570       4.293      -2.739      95.625
 Approx polarizability:     109.242     -58.850     163.947       4.108      -0.153     112.019

 ******    1 imaginary frequencies (negative Signs) ******

                      1                      2                      3
                      A                      A                      A
 Frequencies --    -42.7878                14.1941                29.0217
 Red. masses --      7.8720                 4.7432                 5.6486
 Frc consts  --      0.0085                 0.0006                 0.0028
 IR Inten    --     14.7193                 0.8040                 2.4080

                      4                      5                      6
                      A                      A                      A
 Frequencies --     44.6836                67.7360                89.5669
 Red. masses --      5.6440                 3.7177                 1.7838
 Frc consts  --      0.0066                 0.0100                 0.0084
 IR Inten    --      0.6101                 1.8337                 1.2768

                      7                      8                      9
                      A                      A                      A
 Frequencies --    114.7012               130.5131               136.1607
 Red. masses --      2.1698                 3.5205                 8.6987
 Frc consts  --      0.0168                 0.0353                 0.0950
 IR Inten    --      1.6550                20.3395                 7.2570

                     10                     11                     12
                      A                      A                      A
 Frequencies --    160.3612               199.5047               229.6893
 Red. masses --     10.4532                 2.6352                 2.9115
 Frc consts  --      0.1584                 0.0618                 0.0905
 IR Inten    --     15.6020                 4.8205                 5.4614

                     13                     14                     15
                      A                      A                      A
 Frequencies --    291.3748               346.4894               455.8905
 Red. masses --      7.3753                 4.0552                10.8277
 Frc consts  --      0.3689                 0.2868                 1.3259
 IR Inten    --      9.5645                19.7775                 3.1786

                     16                     17                     18
                      A                      A                      A
 Frequencies --    481.8575               482.5831               535.3332
 Red. masses --      4.1961                 9.9232                 1.6180
 Frc consts  --      0.5740                 1.3616                 0.2732
 IR Inten    --      2.6782                 4.4164                 1.1740

                     19                     20                     21
                      A                      A                      A
 Frequencies --    559.5829               611.0195               637.5511
 Red. masses --     11.5376                 6.1433                 1.2086
 Frc consts  --      2.1286                 1.3513                 0.2894
 IR Inten    --      3.7962                 2.0463               105.8342

                     22                     23                     24
                      A                      A                      A
 Frequencies --    642.6638               682.2997               723.4917
 Red. masses --      3.8772                 3.3215                 5.7410
 Frc consts  --      0.9435                 0.9110                 1.7705
 IR Inten    --      0.6167                 3.5652                46.7745

                     25                     26                     27
                      A                      A                      A
 Frequencies --    733.5644               753.7179               789.4291
 Red. masses --     11.2827                 1.5777                10.1405
 Frc consts  --      3.5772                 0.5281                 3.7234
 IR Inten    --     37.2940                49.2704                 8.3323

                     28                     29                     30
                      A                      A                      A
 Frequencies --    843.9218               896.4569              1007.4628
 Red. masses --      4.4926                 2.8270                 9.8684
 Frc consts  --      1.8852                 1.3385                 5.9014
 IR Inten    --     45.0116                 9.6314                36.8382

                     31                     32                     33
                      A                      A                      A
 Frequencies --   1020.4216              1026.2601              1071.1044
 Red. masses --      1.3067                 1.1329                 2.8163
 Frc consts  --      0.8016                 0.7030                 1.9037
 IR Inten    --     41.1246                12.4440                 6.9801

                     34                     35                     36
                      A                      A                      A
 Frequencies --   1079.5920              1082.6060              1172.1893
 Red. masses --      2.1843                 1.5759                 1.8614
 Frc consts  --      1.5000                 1.0882                 1.5069
 IR Inten    --     30.2877                46.2749               101.7134

                     37                     38                     39
                      A                      A                      A
 Frequencies --   1182.0253              1210.6014              1270.2844
 Red. masses --      1.3000                 1.5265                 1.7405
 Frc consts  --      1.0701                 1.3181                 1.6547
 IR Inten    --      5.6615                 7.6354               142.8281

                     40                     41                     42
                      A                      A                      A
 Frequencies --   1342.6288              1351.7216              1421.4469
 Red. masses --      2.2743                 2.1749                 1.2891
 Frc consts  --      2.4156                 2.3413                 1.5346
 IR Inten    --     31.9815               325.1509               122.6870

                     43                     44                     45
                      A                      A                      A
 Frequencies --   1455.2717              1464.0553              1475.3610
 Red. masses --      3.8237                 1.0971                 1.0846
 Frc consts  --      4.7711                 1.3856                 1.3910
 IR Inten    --     92.3390                37.7960                37.8721

                     46                     47                     48
                      A                      A                      A
 Frequencies --   1483.5761              1494.9629              1634.3437
 Red. masses --      1.2880                 6.3592                 5.5541
 Frc consts  --      1.6702                 8.3736                 8.7408
 IR Inten    --     49.6024                43.9808               125.5527

                     49                     50                     51
                      A                      A                      A
 Frequencies --   1736.8726              1837.8345              1917.3311
 Red. masses --      5.3509                11.1452                12.3753
 Frc consts  --      9.5107                22.1794                26.8041
 IR Inten    --     45.4614               215.7133              1222.5798

                     52                     53                     54
                      A                      A                      A
 Frequencies --   2390.8338              3071.0344              3174.8227
 Red. masses --     12.6475                 1.0318                 1.0617
 Frc consts  --     42.5945                 5.7334                 6.3048
 IR Inten    --    184.0498                30.6868                 1.0350

                     55                     56                     57
                      A                      A                      A
 Frequencies --   3175.5657              3212.4006              3226.8184
 Red. masses --      1.1081                 1.1083                 1.0974
 Frc consts  --      6.5837                 6.7387                 6.7325
 IR Inten    --     12.2779                 7.6207                 0.3963

                     58                     59                     60
                      A                      A                      A
 Frequencies --   3286.7113              3339.4878              3645.5323
 Red. masses --      1.1185                 1.1001                 1.0850
 Frc consts  --      7.1186                 7.2285                 8.4957
 IR Inten    --      0.0650                22.5629               189.0057

 - Thermochemistry -
 -------------------
 Temperature   298.150 Kelvin.  Pressure   1.00000 Atm.
 Atom     1 has atomic number  6 and mass  12.00000

 Molecular mass:   196.04841 amu.
 Principal axes and moments of inertia in atomic units:
                           1         2         3
     Eigenvalues --  2414.394902651.602504230.02193
           X            0.99080  -0.13531  -0.00372
           Y            0.13521   0.99061  -0.02042
           Z            0.00645   0.01973   0.99978
 This molecule is an asymmetric top.
 Rotational symmetry number  1.
 Warning -- assumption of classical behavior for rotation
           may cause significant error
 Rotational temperatures (Kelvin)      0.03587     0.03266     0.02048
 Rotational constants (GHZ):           0.74749     0.68062     0.42665
    1 imaginary frequencies ignored.
 Zero-point vibrational energy     418361.1 (Joules/Mol)
                                   99.99071 (Kcal/Mol)
 Warning -- explicit consideration of  19 degrees of freedom as
           vibrations may cause significant error
 Vibrational temperatures:     20.42    41.76    64.29    97.46   128.87
          (Kelvin)            165.03   187.78   195.90   230.72   287.04
                              330.47   419.22   498.52   655.92   693.29
                              694.33   770.23   805.11   879.12   917.29
                              924.65   981.68  1040.94  1055.44  1084.43
                             1135.81  1214.22  1289.80  1449.51  1468.16
                             1476.56  1541.08  1553.29  1557.63  1686.52
                             1700.67  1741.79  1827.66  1931.74  1944.83
                             2045.15  2093.81  2106.45  2122.72  2134.54
                             2150.92  2351.46  2498.97  2644.23  2758.61
                             3439.88  4418.53  4567.86  4568.93  4621.93
                             4642.67  4728.84  4804.78  5245.11

 Zero-point correction=                           0.159345 (Hartree/Particle)
 Thermal correction to Energy=                    0.173398
 Thermal correction to Enthalpy=                  0.174342
 Thermal correction to Gibbs Free Energy=         0.115119
 Sum of electronic and zero-point Energies=           -719.072530
 Sum of electronic and thermal Energies=              -719.058478
 Sum of electronic and thermal Enthalpies=            -719.057533
 Sum of electronic and thermal Free Energies=         -719.116756

                     E (Thermal)             CV                S
                      KCal/Mol        Cal/Mol-Kelvin    Cal/Mol-Kelvin
 Total                  108.809             48.091            124.645
 Electronic               0.000              0.000              0.000
 Translational            0.889              2.981             41.725
 Rotational               0.889              2.981             31.671
 Vibrational            107.032             42.129             51.249
 Vibration     1          0.593              1.986              7.315
 Vibration     2          0.593              1.984              5.895
 Vibration     3          0.595              1.980              5.040
 Vibration     4          0.598              1.970              4.218
 Vibration     5          0.602              1.957              3.670
 Vibration     6          0.608              1.937              3.188
 Vibration     7          0.612              1.923              2.938
 Vibration     8          0.614              1.917              2.857
 Vibration     9          0.622              1.891              2.546
 Vibration    10          0.638              1.841              2.138
 Vibration    11          0.652              1.796              1.881
 Vibration    12          0.687              1.690              1.466
 Vibration    13          0.724              1.582              1.182
 Vibration    14          0.814              1.348              0.778
 Vibration    15          0.838              1.290              0.705
 Vibration    16          0.839              1.289              0.703
 Vibration    17          0.890              1.172              0.575
 Vibration    18          0.915              1.119              0.525
 Vibration    19          0.970              1.009              0.431

 1\1\GINC-NODE-007\Freq\RwB97XD\def2SVP\C8H8N2O4\JP2658\30-Dec-2023\0\\
 # wb97xd def2svp scrf=(iefpcm,solvent=toluene) freq=noraman\\cyclic-1_
 1_opt_hf_re5.out\\0,1\C,-1.70512,-0.15704,0.14517\C,0.28776,2.97266,-0
 .30923\C,-0.48099,-1.74661,1.0471\C,1.06085,2.01212,-0.81713\N,-1.0830
 6,-0.548,1.24532\H,-0.15701,3.74359,-0.94109\H,0.07813,3.00544,0.7635\
 H,0.10157,-2.24444,1.81224\H,1.29459,1.95278,-1.88225\O,-1.54868,-1.06
 069,-0.80241\C,-0.73499,-2.14498,-0.29022\O,-0.4427,-3.07104,-0.99502\
 C,1.64742,0.96386,0.0573\O,1.43849,0.84848,1.24463\O,2.43317,0.14445,-

 Normal termination of Gaussian 16 at Sat Dec 30 20:53:18 2023.
