 Gaussian 16, Revision C.01,
 Gaussian 16:  ES64L-G16RevC.01  3-Jul-2019

 -----------------------------------------------------------
 # wb97xd def2svp scrf=(iefpcm,solvent=toluene) freq=noraman
 -----------------------------------------------------------

 -----------------------------
 cyclic-1_1_opt_sqm_reopt9.out
 -----------------------------
 Symbolic Z-matrix:
 Charge =  0 Multiplicity = 1

                         Standard orientation:
 ---------------------------------------------------------------------
 Center     Atomic      Atomic             Coordinates (Angstroms)
 Number     Number       Type             X           Y           Z
 ---------------------------------------------------------------------
      1          6           0        1.861390    0.762658    0.014949
      2          6           0       -2.844460    2.201320   -0.024901
      3          6           0        2.107729   -1.414032    0.024769
      4          6           0       -3.464050    1.019700   -0.035491
      5          7           0        1.219009   -0.391822    0.042489
      6          1           0       -3.412630    3.133530   -0.048531
      7          1           0       -1.754160    2.273529    0.008729
      8          1           0        1.810649   -2.455632    0.039089
      9          1           0       -4.551800    0.930220   -0.067731
     10          8           0        3.166919    0.563188   -0.021391
     11          6           0        3.416129   -0.861382   -0.018061
     12          8           0        4.540939   -1.280743   -0.048441
     13          6           0       -2.701891   -0.247761   -0.004051
     14          8           0       -1.489161   -0.337991    0.026589
     15          8           0       -3.495521   -1.305700   -0.014171
     16          6           0       -2.879401   -2.588430    0.009999
     17          1           0       -3.693322   -3.317290   -0.054701
     18          1           0       -2.319302   -2.729101    0.945209
     19          1           0       -2.195912   -2.705861   -0.842491
     20          6           0        1.257540    2.039468    0.020759
     21          7           0        0.727840    3.070948    0.026579
     22          1           0        0.185209   -0.462551    0.068399
 ---------------------------------------------------------------------

 SCF Done:  E(RwB97XD) =  -719.241175527     A.U. after   14 cycles

 The electronic state is 1-A.
 Alpha  occ. eigenvalues --  -19.34327 -19.33194 -19.27993 -19.22730 -14.55650
 Alpha  occ. eigenvalues --  -14.47904 -10.46235 -10.44107 -10.42450 -10.37569
 Alpha  occ. eigenvalues --  -10.37254 -10.34433 -10.33563 -10.33064  -1.25452
 Alpha  occ. eigenvalues --   -1.23662  -1.14041  -1.12511  -1.08773  -1.02743
 Alpha  occ. eigenvalues --   -0.91036  -0.89508  -0.84779  -0.78615  -0.74687
 Alpha  occ. eigenvalues --   -0.73178  -0.72186  -0.66887  -0.64417  -0.62158
 Alpha  occ. eigenvalues --   -0.61202  -0.60470  -0.59743  -0.56961  -0.55338
 Alpha  occ. eigenvalues --   -0.52409  -0.52133  -0.51581  -0.50496  -0.49345
 Alpha  occ. eigenvalues --   -0.48920  -0.47906  -0.46745  -0.46435  -0.45852
 Alpha  occ. eigenvalues --   -0.44132  -0.42005  -0.40359  -0.38618  -0.36744
 Alpha  occ. eigenvalues --   -0.28338
 Alpha virt. eigenvalues --   -0.00981   0.00135   0.05720   0.13115   0.13704
 Alpha virt. eigenvalues --    0.14185   0.15924   0.16941   0.17876   0.18172
 Alpha virt. eigenvalues --    0.19298   0.20177   0.20845   0.21243   0.22038

 Mulliken charges:
               1
     1  C    0.035847
     2  C   -0.004661
     3  C   -0.120744
     4  C   -0.127018
     5  N   -0.010599
     6  H    0.084895
     7  H    0.071637
     8  H    0.068693
     9  H    0.065859
    10  O   -0.257258
    11  C    0.256517
    12  O   -0.259634
    13  C    0.303666
    14  O   -0.323022
    15  O   -0.310728
    16  C    0.115739
    17  H    0.074102
    18  H    0.063309
    19  H    0.062173
    20  C   -0.020484
    21  N    0.047527
    22  H    0.184186
 Sum of Mulliken charges =  -0.00000

 Dipole moment (field-independent basis, Debye):
    X=             -9.2233    Y=             -2.7373    Z=              0.1187  Tot=              9.6217
 Quadrupole moment (field-independent basis, Debye-Ang):
   XX=           -102.1667   YY=            -78.2426   ZZ=            -79.4710
   XY=              6.9537   XZ=              0.5914   YZ=             -0.3606

  Exact polarizability:     134.120     -27.245     186.407      -0.287      -0.062      58.508
 Approx polarizability:     132.427     -24.692     185.116      -0.430       0.068      63.665

 ******    1 imaginary frequencies (negative Signs) ******

                      1                      2                      3
                      A                      A                      A
 Frequencies --    -24.7157                14.2474                25.3038
 Red. masses --      6.1502                 5.2976                 5.5940
 Frc consts  --      0.0022                 0.0006                 0.0021
 IR Inten    --      0.9493                 0.0734                 0.6513

                      4                      5                      6
                      A                      A                      A
 Frequencies --     58.7180                80.0963               106.0886
 Red. masses --      6.2388                 5.1135                 3.1886
 Frc consts  --      0.0127                 0.0193                 0.0211
 IR Inten    --      1.7587                 8.7722                 6.4534

                      7                      8                      9
                      A                      A                      A
 Frequencies --    120.8497               130.6571               146.6893
 Red. masses --      6.5374                10.1586                 1.0705
 Frc consts  --      0.0563                 0.1022                 0.0136
 IR Inten    --      1.5422                 2.5285                 0.6642

                     10                     11                     12
                      A                      A                      A
 Frequencies --    165.3136               204.0684               248.0123
 Red. masses --     10.6236                 2.6997                 3.2152
 Frc consts  --      0.1711                 0.0662                 0.1165
 IR Inten    --     20.3733                 4.6473                22.0315

                     13                     14                     15
                      A                      A                      A
 Frequencies --    296.0509               338.2999               458.1470
 Red. masses --      9.5121                 4.1607                10.7523
 Frc consts  --      0.4912                 0.2806                 1.3297
 IR Inten    --      1.9706                22.0564                 5.8927

                     16                     17                     18
                      A                      A                      A
 Frequencies --    484.5812               486.9268               532.1132
 Red. masses --     11.8945                 4.2102                 1.5993
 Frc consts  --      1.6456                 0.5881                 0.2668
 IR Inten    --      5.8500                 6.8492                 0.0096

                     19                     20                     21
                      A                      A                      A
 Frequencies --    563.8105               615.6864               639.5699
 Red. masses --     11.6362                 6.6016                 1.1569
 Frc consts  --      2.1794                 1.4744                 0.2788
 IR Inten    --      4.2618                 1.3229                49.9889

                     22                     23                     24
                      A                      A                      A
 Frequencies --    658.6308               678.6088               735.3911
 Red. masses --      7.8085                 3.3213                11.6009
 Frc consts  --      1.9957                 0.9012                 3.6964
 IR Inten    --      2.6514                10.5804                20.6152

                     25                     26                     27
                      A                      A                      A
 Frequencies --    737.9715               791.9034               841.5530
 Red. masses --     11.8928                10.1402                 4.5640
 Frc consts  --      3.8160                 3.7466                 1.9044
 IR Inten    --     32.3151                26.6127                44.3570

                     28                     29                     30
                      A                      A                      A
 Frequencies --    910.4030               990.6777              1004.2552
 Red. masses --      2.6710                 1.1309                 8.2669
 Frc consts  --      1.3043                 0.6539                 4.9122
 IR Inten    --      5.1644                53.1264                55.0333

                     31                     32                     33
                      A                      A                      A
 Frequencies --   1026.1766              1041.5458              1068.0239
 Red. masses --      1.0853                 1.3538                 4.2275
 Frc consts  --      0.6734                 0.8653                 2.8412
 IR Inten    --     23.3619                26.7788                 5.5432

                     34                     35                     36
                      A                      A                      A
 Frequencies --   1076.5219              1087.4957              1180.8651
 Red. masses --      1.5741                 1.8890                 1.2972
 Frc consts  --      1.0748                 1.3163                 1.0657
 IR Inten    --     46.9791                25.2178                 1.2293

                     37                     38                     39
                      A                      A                      A
 Frequencies --   1205.9140              1215.4978              1277.7270
 Red. masses --      1.9838                 1.6277                 1.5926
 Frc consts  --      1.6997                 1.4169                 1.5319
 IR Inten    --     96.1309                 5.0956               130.9891

                     40                     41                     42
                      A                      A                      A
 Frequencies --   1349.2584              1363.4026              1429.0070
 Red. masses --      2.2595                 2.2070                 1.2845
 Frc consts  --      2.4236                 2.4171                 1.5455
 IR Inten    --    217.4924               345.7758               166.2904

                     43                     44                     45
                      A                      A                      A
 Frequencies --   1469.1894              1470.2417              1475.9211
 Red. masses --      1.6790                 1.6276                 1.1362
 Frc consts  --      2.1353                 2.0729                 1.4582
 IR Inten    --     26.7517                43.3333                69.4611

                     46                     47                     48
                      A                      A                      A
 Frequencies --   1488.4666              1501.9422              1640.6605
 Red. masses --      1.4704                 3.7118                 4.5033
 Frc consts  --      1.9194                 4.9333                 7.1420
 IR Inten    --     91.3124                89.2490               121.4637

                     49                     50                     51
                      A                      A                      A
 Frequencies --   1735.4099              1822.5926              1913.2262
 Red. masses --      5.2511                10.8199                12.4108
 Frc consts  --      9.3176                21.1763                26.7659
 IR Inten    --     66.2857               613.6966              1269.1764

                     52                     53                     54
                      A                      A                      A
 Frequencies --   2384.9076              3070.3240              3173.8612
 Red. masses --     12.6409                 1.0323                 1.1088
 Frc consts  --     42.3615                 5.7337                 6.5809
 IR Inten    --    245.0715                22.3628                12.3285

                     55                     56                     57
                      A                      A                      A
 Frequencies --   3178.5667              3218.4507              3228.6746
 Red. masses --      1.0618                 1.1080                 1.0978
 Frc consts  --      6.3207                 6.7623                 6.7422
 IR Inten    --      6.3359                11.7112                 3.7540

                     58                     59                     60
                      A                      A                      A
 Frequencies --   3287.3691              3290.1855              3333.5836
 Red. masses --      1.1063                 1.1074                 1.0998
 Frc consts  --      7.0439                 7.0629                 7.2011
 IR Inten    --    830.2839               841.6515                14.4084

 - Thermochemistry -
 -------------------
 Temperature   298.150 Kelvin.  Pressure   1.00000 Atm.
 Atom     1 has atomic number  6 and mass  12.00000

 Molecular mass:   196.04841 amu.
 Principal axes and moments of inertia in atomic units:
                           1         2         3
     Eigenvalues --  1735.674545338.881717061.92030
           X            1.00000   0.00148   0.00026
           Y           -0.00148   1.00000  -0.00091
           Z           -0.00026   0.00091   1.00000
 This molecule is an asymmetric top.
 Rotational symmetry number  1.
 Warning -- assumption of classical behavior for rotation
           may cause significant error
 Rotational temperatures (Kelvin)      0.04990     0.01622     0.01226
 Rotational constants (GHZ):           1.03979     0.33804     0.25556
    1 imaginary frequencies ignored.
 Zero-point vibrational energy     419109.5 (Joules/Mol)
                                  100.16957 (Kcal/Mol)
 Warning -- explicit consideration of  19 degrees of freedom as
           vibrations may cause significant error
 Vibrational temperatures:     20.50    36.41    84.48   115.24   152.64
          (Kelvin)            173.88   187.99   211.05   237.85   293.61
                              356.83   425.95   486.74   659.17   697.20
                              700.58   765.59   811.20   885.84   920.20
                              947.62   976.37  1058.06  1061.78  1139.37
                             1210.81  1309.87  1425.36  1444.90  1476.44
                             1498.55  1536.65  1548.87  1564.66  1699.00
                             1735.04  1748.83  1838.36  1941.28  1961.63
                             2056.02  2113.84  2115.35  2123.52  2141.57
                             2160.96  2360.54  2496.87  2622.30  2752.71
                             3431.35  4417.51  4566.48  4573.25  4630.63
                             4645.34  4729.79  4733.84  4796.28

 Zero-point correction=                           0.159630 (Hartree/Particle)
 Thermal correction to Energy=                    0.173449
 Thermal correction to Enthalpy=                  0.174393
 Thermal correction to Gibbs Free Energy=         0.115540
 Sum of electronic and zero-point Energies=           -719.081545
 Sum of electronic and thermal Energies=              -719.067726
 Sum of electronic and thermal Enthalpies=            -719.066782
 Sum of electronic and thermal Free Energies=         -719.125636

                     E (Thermal)             CV                S
                      KCal/Mol        Cal/Mol-Kelvin    Cal/Mol-Kelvin
 Total                  108.841             47.499            123.868
 Electronic               0.000              0.000              0.000
 Translational            0.889              2.981             41.725
 Rotational               0.889              2.981             32.548
 Vibrational            107.063             41.537             49.595
 Vibration     1          0.593              1.986              7.308
 Vibration     2          0.593              1.985              6.167
 Vibration     3          0.596              1.974              4.500
 Vibration     4          0.600              1.963              3.889
 Vibration     5          0.605              1.944              3.339
 Vibration     6          0.609              1.932              3.087
 Vibration     7          0.612              1.923              2.936
 Vibration     8          0.617              1.906              2.715
 Vibration     9          0.624              1.885              2.488
 Vibration    10          0.640              1.834              2.096
 Vibration    11          0.662              1.766              1.745
 Vibration    12          0.690              1.681              1.439
 Vibration    13          0.719              1.599              1.220
 Vibration    14          0.816              1.343              0.772
 Vibration    15          0.841              1.284              0.698
 Vibration    16          0.843              1.279              0.692
 Vibration    17          0.887              1.179              0.583
 Vibration    18          0.920              1.110              0.516
 Vibration    19          0.975              0.999              0.423

 1\1\GINC-NODE-001\Freq\RwB97XD\def2SVP\C8H8N2O4\JP2658\30-Dec-2023\0\\
 # wb97xd def2svp scrf=(iefpcm,solvent=toluene) freq=noraman\\cyclic-1_
 1_opt_sqm_reopt9.out\\0,1\C,1.86139,0.76266,0.01495\C,-2.84446,2.20132
 ,-0.0249\C,2.10773,-1.41403,0.02477\C,-3.46405,1.0197,-0.03549\N,1.219
 01,-0.39182,0.04249\H,-3.41263,3.13353,-0.04853\H,-1.75416,2.27353,0.0
 0873\H,1.81065,-2.45563,0.03909\H,-4.5518,0.93022,-0.06773\O,3.16692,0
 .56319,-0.02139\C,3.41613,-0.86138,-0.01806\O,4.54094,-1.28074,-0.0484
 4\C,-2.70189,-0.24776,-0.00405\O,-1.48916,-0.33799,0.02659\O,-3.49552,

 Normal termination of Gaussian 16 at Sat Dec 30 20:52:57 2023.
