 Gaussian 16, Revision C.01,
 Gaussian 16:  ES64L-G16RevC.01  3-Jul-2019

 -----------------------------------------------------------
 # wb97xd def2svp scrf=(iefpcm,solvent=toluene) freq=noraman
 -----------------------------------------------------------

 ----------------------------
 cyclic-1_1_opt_hf_reopt9.out
 ----------------------------
 Symbolic Z-matrix:
 Charge =  0 Multiplicity = 1

                         Standard orientation:
 ---------------------------------------------------------------------
 Center     Atomic      Atomic             Coordinates (Angstroms)
 Number     Number       Type             X           Y           Z
 ---------------------------------------------------------------------
      1          6           0       -3.539430    0.127789    0.003810
      2          6           0        1.453760    1.555061   -0.022340
      3          6           0       -2.862069   -1.968741   -0.007980
      4          6           0        2.178310    0.435741   -0.005620
      5          7           0       -3.935469   -1.135771   -0.000830
      6          1           0        0.362460    1.508530   -0.025810
      7          1           0        1.939149    2.535231   -0.032940
      8          1           0       -2.951229   -3.048331   -0.012800
      9          1           0        1.697230   -0.544309    0.004250
     10          8           0       -2.222110    0.180540    0.000010
     11          6           0       -1.692949   -1.167900   -0.007710
     12          8           0       -0.507589   -1.354310   -0.012070
     13          6           0        3.662030    0.488331   -0.001210
     14          8           0        4.334310    1.491662   -0.010930
     15          8           0        4.189480   -0.741718    0.014590
     16          6           0        5.604800   -0.822178    0.019290
     17          1           0        5.853021   -1.889178    0.021960
     18          1           0        6.022350   -0.335228    0.912560
     19          1           0        6.028480   -0.337798   -0.872420
     20          6           0       -4.369360    1.271209    0.012300
     21          7           0       -5.066070    2.197099    0.019220
     22          1           0       -4.903959   -1.443471    0.000460
 ---------------------------------------------------------------------

 SCF Done:  E(RwB97XD) =  -719.225608556     A.U. after   15 cycles

 The electronic state is 1-A.
 Alpha  occ. eigenvalues --  -19.36219 -19.29649 -19.24419 -19.23531 -14.58765
 Alpha  occ. eigenvalues --  -14.49140 -10.46336 -10.44093 -10.41875 -10.38602
 Alpha  occ. eigenvalues --  -10.36175 -10.34713 -10.30639 -10.29870  -1.27431
 Alpha  occ. eigenvalues --   -1.19700  -1.14321  -1.11053  -1.10034  -1.03894
 Alpha  occ. eigenvalues --   -0.91358  -0.87786  -0.81644  -0.80867  -0.76920
 Alpha  occ. eigenvalues --   -0.73977  -0.70070  -0.64652  -0.63588  -0.63097
 Alpha  occ. eigenvalues --   -0.59499  -0.58810  -0.57135  -0.56157  -0.54065
 Alpha  occ. eigenvalues --   -0.52614  -0.51957  -0.50923  -0.49175  -0.49126
 Alpha  occ. eigenvalues --   -0.48595  -0.48209  -0.47278  -0.45609  -0.45395
 Alpha  occ. eigenvalues --   -0.43296  -0.38441  -0.38319  -0.35737  -0.35614
 Alpha  occ. eigenvalues --   -0.29976
 Alpha virt. eigenvalues --   -0.02734   0.03377   0.04612   0.10715   0.12592
 Alpha virt. eigenvalues --    0.16712   0.16788   0.17151   0.18052   0.18837
 Alpha virt. eigenvalues --    0.19888   0.20493   0.21710   0.21957   0.22204

 Mulliken charges:
               1
     1  C    0.066371
     2  C   -0.031092
     3  C   -0.108383
     4  C   -0.135878
     5  N   -0.014595
     6  H    0.064899
     7  H    0.066098
     8  H    0.084103
     9  H    0.065312
    10  O   -0.253348
    11  C    0.269361
    12  O   -0.243162
    13  C    0.249454
    14  O   -0.275710
    15  O   -0.332599
    16  C    0.127002
    17  H    0.057467
    18  H    0.052313
    19  H    0.052385
    20  C   -0.056525
    21  N    0.093692
    22  H    0.202837
 Sum of Mulliken charges =  -0.00000

 Dipole moment (field-independent basis, Debye):
    X=             -6.5664    Y=             -5.4985    Z=              0.0112  Tot=              8.5646
 Quadrupole moment (field-independent basis, Debye-Ang):
   XX=            -57.3459   YY=            -82.8994   ZZ=            -79.6119
   XY=             14.2806   XZ=              0.2397   YZ=             -0.0613

  Exact polarizability:     158.723     -47.882     159.956      -0.059       0.061      59.294
 Approx polarizability:     145.916     -43.012     170.598      -0.169       0.078      63.671

 ******    2 imaginary frequencies (negative Signs) ******

                      1                      2                      3
                      A                      A                      A
 Frequencies --    -12.8577               -10.8017                 9.1049
 Red. masses --      6.3485                 9.7339                 4.3721
 Frc consts  --      0.0006                 0.0007                 0.0002
 IR Inten    --      8.2296                 2.2386                 0.4094

                      4                      5                      6
                      A                      A                      A
 Frequencies --     14.4210                47.6241                71.0374
 Red. masses --      5.0209                 5.7780                 7.8760
 Frc consts  --      0.0006                 0.0077                 0.0234
 IR Inten    --      2.2264                 6.9216                 1.1091

                      7                      8                      9
                      A                      A                      A
 Frequencies --     96.4069               131.1029               146.5865
 Red. masses --      2.6625                10.7724                 1.1006
 Frc consts  --      0.0146                 0.1091                 0.0139
 IR Inten    --      2.4610                 2.1241                 0.5935

                     10                     11                     12
                      A                      A                      A
 Frequencies --    158.1684               210.9070               222.8282
 Red. masses --     10.2847                 2.6701                 3.0028
 Frc consts  --      0.1516                 0.0700                 0.0878
 IR Inten    --     17.8109                 4.8198                 3.2203

                     13                     14                     15
                      A                      A                      A
 Frequencies --    286.5719               347.4276               454.1865
 Red. masses --      8.0241                 4.1363                10.9880
 Frc consts  --      0.3883                 0.2942                 1.3355
 IR Inten    --      5.0694                23.0023                 4.1232

                     16                     17                     18
                      A                      A                      A
 Frequencies --    479.9078               482.3438               552.2086
 Red. masses --     11.8132                 4.1611                 1.5695
 Frc consts  --      1.6030                 0.5704                 0.2820
 IR Inten    --      4.3079                 0.5681                 0.6661

                     19                     20                     21
                      A                      A                      A
 Frequencies --    560.5333               606.7104               621.4133
 Red. masses --     11.7490                 6.2690                 1.1420
 Frc consts  --      2.1750                 1.3596                 0.2598
 IR Inten    --      4.9056                 2.7483                68.5829

                     22                     23                     24
                      A                      A                      A
 Frequencies --    651.7211               684.6378               728.4869
 Red. masses --      6.1854                 3.3877                12.0780
 Frc consts  --      1.5479                 0.9356                 3.7765
 IR Inten    --      5.0478                 9.4139                20.2601

                     25                     26                     27
                      A                      A                      A
 Frequencies --    729.0252               780.0076               788.4861
 Red. masses --     10.9900                 1.2447                10.1585
 Frc consts  --      3.4414                 0.4462                 3.7211
 IR Inten    --     38.7357                57.3736                11.2262

                     28                     29                     30
                      A                      A                      A
 Frequencies --    845.8776               894.5712              1007.4604
 Red. masses --      4.1156                 2.8372                10.0023
 Frc consts  --      1.7350                 1.3377                 5.9814
 IR Inten    --     35.7460                18.4573                38.3666

                     31                     32                     33
                      A                      A                      A
 Frequencies --   1017.4932              1051.2028              1073.0917
 Red. masses --      1.2834                 1.1422                 1.6853
 Frc consts  --      0.7828                 0.7436                 1.1434
 IR Inten    --     38.9656                 8.9158                38.2264

                     34                     35                     36
                      A                      A                      A
 Frequencies --   1076.1532              1084.3508              1170.1501
 Red. masses --      1.5838                 4.0691                 1.8895
 Frc consts  --      1.0807                 2.8190                 1.5243
 IR Inten    --     47.1066                35.7202               111.5987

                     37                     38                     39
                      A                      A                      A
 Frequencies --   1183.9668              1213.5132              1267.7673
 Red. masses --      1.3018                 1.5386                 1.9735
 Frc consts  --      1.0752                 1.3349                 1.8688
 IR Inten    --      1.1137                 7.8901               245.9963

                     40                     41                     42
                      A                      A                      A
 Frequencies --   1339.8553              1342.2216              1412.6106
 Red. masses --      1.9472                 2.3579                 1.3320
 Frc consts  --      2.0596                 2.5028                 1.5660
 IR Inten    --    224.7853               246.0826               187.0179

                     43                     44                     45
                      A                      A                      A
 Frequencies --   1447.0497              1469.2179              1473.1503
 Red. masses --      4.2171                 1.0384                 1.1164
 Frc consts  --      5.2027                 1.3206                 1.4275
 IR Inten    --     91.0507                11.2208                61.4860

                     46                     47                     48
                      A                      A                      A
 Frequencies --   1484.8964              1492.3630              1631.2893
 Red. masses --      1.2034                 6.9105                 5.4374
 Frc consts  --      1.5633                 9.0679                 8.5252
 IR Inten    --     16.8174                63.3302               121.3819

                     49                     50                     51
                      A                      A                      A
 Frequencies --   1737.7050              1853.4846              1916.6719
 Red. masses --      5.4575                11.4943                12.3345
 Frc consts  --      9.7095                23.2653                26.6974
 IR Inten    --     85.4809               267.5293              1341.9879

                     52                     53                     54
                      A                      A                      A
 Frequencies --   2394.2843              3062.4438              3160.6416
 Red. masses --     12.6482                 1.0322                 1.1077
 Frc consts  --     42.7198                 5.7039                 6.5199
 IR Inten    --    171.9475                36.6604                18.9462

                     55                     56                     57
                      A                      A                      A
 Frequencies --   3163.8719              3202.7433              3240.9823
 Red. masses --      1.0619                 1.1079                 1.0961
 Frc consts  --      6.2629                 6.6956                 6.7834
 IR Inten    --      3.1769                12.5359                10.9978

                     58                     59                     60
                      A                      A                      A
 Frequencies --   3277.8639              3333.7624              3642.3841
 Red. masses --      1.1187                 1.1004                 1.0852
 Frc consts  --      7.0819                 7.2055                 8.4824
 IR Inten    --      0.3426                27.3884               201.4614

 - Thermochemistry -
 -------------------
 Temperature   298.150 Kelvin.  Pressure   1.00000 Atm.
 Atom     1 has atomic number  6 and mass  12.00000

 Molecular mass:   196.04841 amu.
 Principal axes and moments of inertia in atomic units:
                           1         2         3
     Eigenvalues --  1109.045179002.99603**********
           X            1.00000   0.00237   0.00013
           Y           -0.00237   1.00000  -0.00045
           Z           -0.00013   0.00045   1.00000
 This molecule is an asymmetric top.
 Rotational symmetry number  1.
 Warning -- assumption of classical behavior for rotation
           may cause significant error
 Rotational temperatures (Kelvin)      0.07810     0.00962     0.00858
 Rotational constants (GHZ):           1.62729     0.20046     0.17868
    2 imaginary frequencies ignored.
 Zero-point vibrational energy     417657.9 (Joules/Mol)
                                   99.82263 (Kcal/Mol)
 Warning -- explicit consideration of  18 degrees of freedom as
           vibrations may cause significant error
 Vibrational temperatures:     13.10    20.75    68.52   102.21   138.71
          (Kelvin)            188.63   210.91   227.57   303.45   320.60
                              412.31   499.87   653.47   690.48   693.99
                              794.51   806.48   872.92   894.08   937.68
                              985.04  1048.13  1048.90  1122.26  1134.46
                             1217.03  1287.09  1449.51  1463.95  1512.45
                             1543.94  1548.34  1560.14  1683.58  1703.46
                             1745.97  1824.03  1927.75  1931.16  2032.43
                             2081.98  2113.88  2119.53  2136.43  2147.18
                             2347.06  2500.17  2666.75  2757.66  3444.84
                             4406.17  4547.46  4552.11  4608.03  4663.05
                             4716.12  4796.54  5240.58

 Zero-point correction=                           0.159077 (Hartree/Particle)
 Thermal correction to Energy=                    0.172409
 Thermal correction to Enthalpy=                  0.173353
 Thermal correction to Gibbs Free Energy=         0.114207
 Sum of electronic and zero-point Energies=           -719.066531
 Sum of electronic and thermal Energies=              -719.053200
 Sum of electronic and thermal Enthalpies=            -719.052256
 Sum of electronic and thermal Free Energies=         -719.111402

                     E (Thermal)             CV                S
                      KCal/Mol        Cal/Mol-Kelvin    Cal/Mol-Kelvin
 Total                  108.188             46.072            124.483
 Electronic               0.000              0.000              0.000
 Translational            0.889              2.981             41.725
 Rotational               0.889              2.981             32.978
 Vibrational            106.411             40.110             49.781
 Vibration     1          0.593              1.987              8.197
 Vibration     2          0.593              1.986              7.284
 Vibration     3          0.595              1.978              4.914
 Vibration     4          0.598              1.968              4.124
 Vibration     5          0.603              1.952              3.526
 Vibration     6          0.612              1.922              2.930
 Vibration     7          0.617              1.906              2.716
 Vibration     8          0.621              1.893              2.572
 Vibration     9          0.643              1.824              2.036
 Vibration    10          0.649              1.806              1.936
 Vibration    11          0.684              1.699              1.494
 Vibration    12          0.725              1.580              1.178
 Vibration    13          0.813              1.352              0.783
 Vibration    14          0.836              1.295              0.710
 Vibration    15          0.839              1.289              0.704
 Vibration    16          0.908              1.135              0.540
 Vibration    17          0.916              1.117              0.523
 Vibration    18          0.965              1.018              0.438

 1\1\GINC-NODE-001\Freq\RwB97XD\def2SVP\C8H8N2O4\JP2658\30-Dec-2023\0\\
 # wb97xd def2svp scrf=(iefpcm,solvent=toluene) freq=noraman\\cyclic-1_
 1_opt_hf_reopt9.out\\0,1\C,3.53943,0.12779,-0.00381\C,-1.45376,1.55506
 ,0.02234\C,2.86207,-1.96874,0.00798\C,-2.17831,0.43574,0.00562\N,3.935
 47,-1.13577,0.00083\H,-0.36246,1.50853,0.02581\H,-1.93915,2.53523,0.03
 294\H,2.95123,-3.04833,0.0128\H,-1.69723,-0.54431,-0.00425\O,2.22211,0
 .18054,-0.00001\C,1.69295,-1.1679,0.00771\O,0.50759,-1.35431,0.01207\C
 ,-3.66203,0.48833,0.00121\O,-4.33431,1.49166,0.01093\O,-4.18948,-0.741

 Normal termination of Gaussian 16 at Sat Dec 30 20:52:42 2023.
