 Gaussian 16, Revision C.01,
 Gaussian 16:  ES64L-G16RevC.01  3-Jul-2019

 -----------------------------------------------------------
 # wb97xd def2svp scrf=(iefpcm,solvent=toluene) freq=noraman
 -----------------------------------------------------------

 -----------------------------
 cyclic-1_1_opt_dft_reopt5.out
 -----------------------------
 Symbolic Z-matrix:
 Charge =  0 Multiplicity = 1

                         Standard orientation:
 ---------------------------------------------------------------------
 Center     Atomic      Atomic             Coordinates (Angstroms)
 Number     Number       Type             X           Y           Z
 ---------------------------------------------------------------------
      1          6           0        1.721350    0.575601   -0.404730
      2          6           0       -1.526120    1.644629    1.568450
      3          6           0        2.054791   -1.432489    0.405140
      4          6           0       -2.579240    1.176119    0.898120
      5          7           0        1.124961   -0.525510    0.020620
      6          1           0       -1.553201    2.620359    2.056730
      7          1           0       -0.604210    1.064080    1.657280
      8          1           0        1.798511   -2.412779    0.788890
      9          1           0       -3.513240    1.736158    0.820880
     10          8           0        3.034580    0.449161   -0.321770
     11          6           0        3.340401   -0.860189    0.207470
     12          8           0        4.481351   -1.197998    0.370100
     13          6           0       -2.549830   -0.146011    0.233700
     14          8           0       -1.562869   -0.849151    0.092210
     15          8           0       -3.739249   -0.508392   -0.204870
     16          6           0       -3.839369   -1.762512   -0.874080
     17          1           0       -3.194599   -1.775391   -1.763370
     18          1           0       -4.889579   -1.867002   -1.163270
     19          1           0       -3.544188   -2.580632   -0.203170
     20          6           0        1.075120    1.739050   -0.878610
     21          7           0        0.520669    2.684390   -1.257720
     22          1           0        0.087981   -0.651110    0.047620
 ---------------------------------------------------------------------

 SCF Done:  E(RwB97XD) =  -719.241587198     A.U. after   14 cycles

 The electronic state is 1-A.
 Alpha  occ. eigenvalues --  -19.34291 -19.33451 -19.28335 -19.22676 -14.55494
 Alpha  occ. eigenvalues --  -14.47755 -10.46507 -10.44070 -10.42391 -10.37353
 Alpha  occ. eigenvalues --  -10.37155 -10.34345 -10.34318 -10.33612  -1.25401
 Alpha  occ. eigenvalues --   -1.23993  -1.14303  -1.12442  -1.08638  -1.02561
 Alpha  occ. eigenvalues --   -0.91539  -0.89417  -0.85044  -0.78430  -0.74625
 Alpha  occ. eigenvalues --   -0.73544  -0.72087  -0.67165  -0.63841  -0.63042
 Alpha  occ. eigenvalues --   -0.61136  -0.60634  -0.59900  -0.57002  -0.55517
 Alpha  occ. eigenvalues --   -0.52832  -0.52154  -0.51506  -0.50434  -0.49518
 Alpha  occ. eigenvalues --   -0.48830  -0.47997  -0.46726  -0.46443  -0.46010
 Alpha  occ. eigenvalues --   -0.44051  -0.42171  -0.40796  -0.39035  -0.36661
 Alpha  occ. eigenvalues --   -0.28284
 Alpha virt. eigenvalues --   -0.00939  -0.00376   0.06009   0.12996   0.13912
 Alpha virt. eigenvalues --    0.14272   0.15694   0.15869   0.17755   0.18600
 Alpha virt. eigenvalues --    0.19017   0.19926   0.20789   0.21051   0.22035

 Mulliken charges:
               1
     1  C    0.031473
     2  C   -0.011188
     3  C   -0.119726
     4  C   -0.112926
     5  N   -0.025006
     6  H    0.091883
     7  H    0.058640
     8  H    0.071288
     9  H    0.073023
    10  O   -0.256576
    11  C    0.256159
    12  O   -0.260227
    13  C    0.307009
    14  O   -0.329655
    15  O   -0.306598
    16  C    0.120353
    17  H    0.066208
    18  H    0.073576
    19  H    0.066038
    20  C   -0.067479
    21  N    0.081749
    22  H    0.191983
 Sum of Mulliken charges =  -0.00000

 Dipole moment (field-independent basis, Debye):
    X=             -9.2968    Y=             -1.8250    Z=              1.1745  Tot=              9.5468
 Quadrupole moment (field-independent basis, Debye-Ang):
   XX=            -99.5385   YY=            -81.3200   ZZ=            -77.7401
   XY=              9.2993   XZ=              0.1255   YZ=              8.9810

  Exact polarizability:     143.248     -22.711     152.088      23.369     -13.042      83.390
 Approx polarizability:     140.668     -27.103     156.279      22.262     -19.681      85.958

 ******    1 imaginary frequencies (negative Signs) ******

                      1                      2                      3
                      A                      A                      A
 Frequencies --     -6.4848                27.8121                39.9851
 Red. masses --      5.6574                 6.1639                 4.0468
 Frc consts  --      0.0001                 0.0028                 0.0038
 IR Inten    --      0.3808                 1.2588                 0.6438

                      4                      5                      6
                      A                      A                      A
 Frequencies --     69.3279                96.2406               115.2247
 Red. masses --      6.3922                 5.7073                 2.2539
 Frc consts  --      0.0181                 0.0311                 0.0176
 IR Inten    --      2.4153                10.3134                 1.1214

                      7                      8                      9
                      A                      A                      A
 Frequencies --    119.7737               130.8265               131.8165
 Red. masses --      3.3470                 2.6217                 3.0592
 Frc consts  --      0.0283                 0.0264                 0.0313
 IR Inten    --      3.2717                 2.4591                 0.2610

                     10                     11                     12
                      A                      A                      A
 Frequencies --    171.7528               206.6089               241.8534
 Red. masses --      9.4308                 2.7238                 3.1604
 Frc consts  --      0.1639                 0.0685                 0.1089
 IR Inten    --     22.0018                 4.0839                16.8230

                     13                     14                     15
                      A                      A                      A
 Frequencies --    298.1262               358.8611               458.8705
 Red. masses --      9.6869                 4.3925                10.8675
 Frc consts  --      0.5073                 0.3333                 1.3482
 IR Inten    --      1.3881                37.6868                 7.2354

                     16                     17                     18
                      A                      A                      A
 Frequencies --    480.1451               487.1486               540.4041
 Red. masses --      3.4327                11.6353                 1.7540
 Frc consts  --      0.4663                 1.6269                 0.3018
 IR Inten    --      2.3386                 5.2456                 0.9663

                     19                     20                     21
                      A                      A                      A
 Frequencies --    564.1125               618.1723               643.7623
 Red. masses --     11.5132                 6.6719                 1.1997
 Frc consts  --      2.1586                 1.5022                 0.2929
 IR Inten    --      3.8783                 0.4423                45.8255

                     22                     23                     24
                      A                      A                      A
 Frequencies --    660.0697               687.5262               736.3505
 Red. masses --      6.4804                 3.3060                11.2673
 Frc consts  --      1.6635                 0.9207                 3.5995
 IR Inten    --      4.4047                 6.4243                23.6917

                     25                     26                     27
                      A                      A                      A
 Frequencies --    738.8363               791.7867               841.7749
 Red. masses --     11.8126                10.1613                 4.4869
 Frc consts  --      3.7992                 3.7533                 1.8732
 IR Inten    --     31.4538                31.3768                40.2492

                     28                     29                     30
                      A                      A                      A
 Frequencies --    911.6269               999.7064              1024.9211
 Red. masses --      2.7791                 8.0081                 1.0997
 Frc consts  --      1.3608                 4.7154                 0.6806
 IR Inten    --     12.2460                63.6608                23.8057

                     31                     32                     33
                      A                      A                      A
 Frequencies --   1029.1536              1039.0453              1065.5030
 Red. masses --      1.3191                 1.1379                 4.6088
 Frc consts  --      0.8232                 0.7238                 3.0828
 IR Inten    --     54.4666                38.2077                15.2408

                     34                     35                     36
                      A                      A                      A
 Frequencies --   1078.6658              1084.3077              1179.9188
 Red. masses --      1.6219                 1.7972                 1.2977
 Frc consts  --      1.1118                 1.2450                 1.0644
 IR Inten    --     49.4671                21.8294                 1.0116

                     37                     38                     39
                      A                      A                      A
 Frequencies --   1212.9955              1228.1600              1280.7972
 Red. masses --      1.5272                 2.4298                 1.5246
 Frc consts  --      1.3239                 2.1594                 1.4735
 IR Inten    --      3.1489                74.5142               115.7693

                     40                     41                     42
                      A                      A                      A
 Frequencies --   1359.1771              1373.5149              1431.8045
 Red. masses --      2.3035                 2.1938                 1.2774
 Frc consts  --      2.5072                 2.4385                 1.5429
 IR Inten    --    297.7366               365.3364               177.2080

                     43                     44                     45
                      A                      A                      A
 Frequencies --   1467.4999              1471.7768              1473.4755
 Red. masses --      1.0391                 4.1030                 1.1842
 Frc consts  --      1.3185                 5.2365                 1.5148
 IR Inten    --     14.9374                80.6169                38.0976

                     46                     47                     48
                      A                      A                      A
 Frequencies --   1491.3847              1510.0109              1646.2891
 Red. masses --      1.5363                 2.9927                 3.4573
 Frc consts  --      2.0133                 4.0205                 5.5207
 IR Inten    --    140.7058                43.3392                95.3986

                     49                     50                     51
                      A                      A                      A
 Frequencies --   1739.4849              1800.2272              1912.1222
 Red. masses --      5.3593                10.0337                12.3941
 Frc consts  --      9.5544                19.1587                26.6991
 IR Inten    --     66.2452               588.8863              1283.4509

                     52                     53                     54
                      A                      A                      A
 Frequencies --   2384.1249              3074.7220              3119.0836
 Red. masses --     12.6400                 1.0320                 1.1056
 Frc consts  --     42.3306                 5.7484                 6.3375
 IR Inten    --    226.1635                38.5253              1831.9315

                     55                     56                     57
                      A                      A                      A
 Frequencies --   3178.2063              3180.6443              3220.7094
 Red. masses --      1.0626                 1.1089                 1.1089
 Frc consts  --      6.3236                 6.6098                 6.7769
 IR Inten    --      1.8847                 9.8172                 4.6677

                     58                     59                     60
                      A                      A                      A
 Frequencies --   3230.2452              3287.6565              3332.2466
 Red. masses --      1.0973                 1.1181                 1.0999
 Frc consts  --      6.7463                 7.1202                 7.1955
 IR Inten    --      0.5586                 0.1427                17.5281

 - Thermochemistry -
 -------------------
 Temperature   298.150 Kelvin.  Pressure   1.00000 Atm.
 Atom     1 has atomic number  6 and mass  12.00000

 Molecular mass:   196.04841 amu.
 Principal axes and moments of inertia in atomic units:
                           1         2         3
     Eigenvalues --  1571.280345412.300636257.04682
           X            0.99996   0.00802   0.00505
           Y           -0.00828   0.99859   0.05240
           Z           -0.00463  -0.05244   0.99861
 This molecule is an asymmetric top.
 Rotational symmetry number  1.
 Warning -- assumption of classical behavior for rotation
           may cause significant error
 Rotational temperatures (Kelvin)      0.05512     0.01600     0.01384
 Rotational constants (GHZ):           1.14858     0.33345     0.28843
    1 imaginary frequencies ignored.
 Zero-point vibrational energy     419149.8 (Joules/Mol)
                                  100.17921 (Kcal/Mol)
 Warning -- explicit consideration of  19 degrees of freedom as
           vibrations may cause significant error
 Vibrational temperatures:     40.02    57.53    99.75   138.47   165.78
          (Kelvin)            172.33   188.23   189.65   247.11   297.26
                              347.97   428.94   516.32   660.21   690.82
                              700.90   777.52   811.63   889.41   926.23
                              949.69   989.20  1059.44  1063.02  1139.20
                             1211.13  1311.63  1438.35  1474.63  1480.72
                             1494.95  1533.02  1551.96  1560.08  1697.64
                             1745.23  1767.05  1842.78  1955.55  1976.18
                             2060.05  2111.41  2117.56  2120.00  2145.77
                             2172.57  2368.64  2502.73  2590.13  2751.12
                             3430.22  4423.84  4487.67  4572.73  4576.24
                             4633.88  4647.60  4730.20  4794.36

 Zero-point correction=                           0.159646 (Hartree/Particle)
 Thermal correction to Energy=                    0.173311
 Thermal correction to Enthalpy=                  0.174256
 Thermal correction to Gibbs Free Energy=         0.116958
 Sum of electronic and zero-point Energies=           -719.081941
 Sum of electronic and thermal Energies=              -719.068276
 Sum of electronic and thermal Enthalpies=            -719.067332
 Sum of electronic and thermal Free Energies=         -719.124629

                     E (Thermal)             CV                S
                      KCal/Mol        Cal/Mol-Kelvin    Cal/Mol-Kelvin
 Total                  108.755             47.335            120.593
 Electronic               0.000              0.000              0.000
 Translational            0.889              2.981             41.725
 Rotational               0.889              2.981             32.342
 Vibrational            106.977             41.373             46.526
 Vibration     1          0.593              1.984              5.980
 Vibration     2          0.594              1.981              5.260
 Vibration     3          0.598              1.969              4.172
 Vibration     4          0.603              1.952              3.529
 Vibration     5          0.608              1.937              3.179
 Vibration     6          0.609              1.933              3.104
 Vibration     7          0.612              1.922              2.934
 Vibration     8          0.612              1.922              2.919
 Vibration     9          0.626              1.877              2.416
 Vibration    10          0.641              1.830              2.073
 Vibration    11          0.658              1.776              1.789
 Vibration    12          0.691              1.677              1.427
 Vibration    13          0.734              1.557              1.127
 Vibration    14          0.817              1.341              0.769
 Vibration    15          0.837              1.294              0.710
 Vibration    16          0.843              1.279              0.691
 Vibration    17          0.895              1.161              0.564
 Vibration    18          0.920              1.109              0.516
 Vibration    19          0.978              0.993              0.419

 1\1\GINC-NODE-007\Freq\RwB97XD\def2SVP\C8H8N2O4\JP2658\30-Dec-2023\0\\
 # wb97xd def2svp scrf=(iefpcm,solvent=toluene) freq=noraman\\cyclic-1_
 1_opt_dft_reopt5.out\\0,1\C,1.72135,0.5756,-0.40473\C,-1.52612,1.64463
 ,1.56845\C,2.05479,-1.43249,0.40514\C,-2.57924,1.17612,0.89812\N,1.124
 96,-0.52551,0.02062\H,-1.5532,2.62036,2.05673\H,-0.60421,1.06408,1.657
 28\H,1.79851,-2.41278,0.78889\H,-3.51324,1.73616,0.82088\O,3.03458,0.4
 4916,-0.32177\C,3.3404,-0.86019,0.20747\O,4.48135,-1.198,0.3701\C,-2.5
 4983,-0.14601,0.2337\O,-1.56287,-0.84915,0.09221\O,-3.73925,-0.50839,-

 Normal termination of Gaussian 16 at Sat Dec 30 20:53:01 2023.
