 Gaussian 16, Revision C.01,
 Gaussian 16:  ES64L-G16RevC.01  3-Jul-2019

 ----------------------------------------------------------------------
 # wb97xd chkbasis guess=read geom=allchk scrf=(iefpcm,solvent=toluene)
  opt=(readfc,ts,noeigen,maxcycles=50,maxstep=10)
 ----------------------------------------------------------------------

 Structure from the checkpoint file:  "cyclic-1_1_opt_dft.chk"
 -----------------------
 cyclic_ts_133_reopt.out
 -----------------------
 Charge =  0 Multiplicity = 1

 SCF Done:  E(RwB97XD) =  -719.241577324     A.U. after    1 cycles
 SCF Done:  E(RwB97XD) =  -719.241578500     A.U. after   10 cycles
 SCF Done:  E(RwB97XD) =  -719.241577292     A.U. after   10 cycles
 SCF Done:  E(RwB97XD) =  -719.241578299     A.U. after    9 cycles
 SCF Done:  E(RwB97XD) =  -719.241577173     A.U. after   10 cycles
 SCF Done:  E(RwB97XD) =  -719.241578500     A.U. after   10 cycles
 SCF Done:  E(RwB97XD) =  -719.241568391     A.U. after   11 cycles
 SCF Done:  E(RwB97XD) =  -719.241571668     A.U. after   11 cycles
 SCF Done:  E(RwB97XD) =  -719.241573814     A.U. after   10 cycles
 SCF Done:  E(RwB97XD) =  -719.241574765     A.U. after   11 cycles
 SCF Done:  E(RwB97XD) =  -719.241583221     A.U. after   10 cycles
 SCF Done:  E(RwB97XD) =  -719.241583700     A.U. after   10 cycles
 SCF Done:  E(RwB97XD) =  -719.241584529     A.U. after   10 cycles
 SCF Done:  E(RwB97XD) =  -719.241585072     A.U. after    9 cycles
 SCF Done:  E(RwB97XD) =  -719.241585607     A.U. after    8 cycles
 SCF Done:  E(RwB97XD) =  -719.241586629     A.U. after   10 cycles
 SCF Done:  E(RwB97XD) =  -719.241587050     A.U. after    9 cycles
 SCF Done:  E(RwB97XD) =  -719.241587181     A.U. after    8 cycles
 SCF Done:  E(RwB97XD) =  -719.241587211     A.U. after    8 cycles
 SCF Done:  E(RwB97XD) =  -719.241587202     A.U. after    8 cycles
 Optimization completed.
    -- Stationary point found.

                         Standard orientation:
 ---------------------------------------------------------------------
 Center     Atomic      Atomic             Coordinates (Angstroms)
 Number     Number       Type             X           Y           Z
 ---------------------------------------------------------------------
      1          6           0        1.721350    0.575604   -0.404728
      2          6           0       -1.526120    1.644631    1.568447
      3          6           0        2.054788   -1.432494    0.405141
      4          6           0       -2.579241    1.176124    0.898119
      5          7           0        1.124959   -0.525507    0.020618
      6          1           0       -1.553195    2.620363    2.056734
      7          1           0       -0.604206    1.064081    1.657279
      8          1           0        1.798514   -2.412780    0.788888
      9          1           0       -3.513236    1.736164    0.820878
     10          8           0        3.034577    0.449165   -0.321766
     11          6           0        3.340403   -0.860186    0.207466
     12          8           0        4.481350   -1.198002    0.370098
     13          6           0       -2.549826   -0.146010    0.233704
     14          8           0       -1.562873   -0.849155    0.092211
     15          8           0       -3.739248   -0.508392   -0.204869
     16          6           0       -3.839366   -1.762514   -0.874083
     17          1           0       -3.194595   -1.775391   -1.763373
     18          1           0       -4.889578   -1.867004   -1.163273
     19          1           0       -3.544188   -2.580634   -0.203168
     20          6           0        1.075115    1.739049   -0.878611
     21          7           0        0.520673    2.684389   -1.257719
     22          1           0        0.087981   -0.651115    0.047617
 ---------------------------------------------------------------------

 The electronic state is 1-A.
 Alpha  occ. eigenvalues --  -19.34291 -19.33451 -19.28335 -19.22676 -14.55494
 Alpha  occ. eigenvalues --  -14.47754 -10.46507 -10.44070 -10.42391 -10.37352
 Alpha  occ. eigenvalues --  -10.37155 -10.34345 -10.34319 -10.33612  -1.25401
 Alpha  occ. eigenvalues --   -1.23993  -1.14303  -1.12443  -1.08638  -1.02561
 Alpha  occ. eigenvalues --   -0.91539  -0.89417  -0.85044  -0.78430  -0.74625
 Alpha  occ. eigenvalues --   -0.73543  -0.72087  -0.67165  -0.63841  -0.63042
 Alpha  occ. eigenvalues --   -0.61136  -0.60634  -0.59900  -0.57002  -0.55517
 Alpha  occ. eigenvalues --   -0.52831  -0.52154  -0.51506  -0.50434  -0.49518
 Alpha  occ. eigenvalues --   -0.48830  -0.47997  -0.46726  -0.46443  -0.46010
 Alpha  occ. eigenvalues --   -0.44051  -0.42171  -0.40796  -0.39035  -0.36661
 Alpha  occ. eigenvalues --   -0.28284
 Alpha virt. eigenvalues --   -0.00939  -0.00376   0.06010   0.12996   0.13912
 Alpha virt. eigenvalues --    0.14272   0.15694   0.15869   0.17755   0.18600
 Alpha virt. eigenvalues --    0.19017   0.19926   0.20789   0.21051   0.22035

 Mulliken charges:
               1
     1  C    0.031474
     2  C   -0.011194
     3  C   -0.119721
     4  C   -0.112921
     5  N   -0.025011
     6  H    0.091884
     7  H    0.058642
     8  H    0.071285
     9  H    0.073022
    10  O   -0.256574
    11  C    0.256157
    12  O   -0.260225
    13  C    0.307008
    14  O   -0.329651
    15  O   -0.306603
    16  C    0.120351
    17  H    0.066208
    18  H    0.073577
    19  H    0.066039
    20  C   -0.067482
    21  N    0.081754
    22  H    0.191982
 Sum of Mulliken charges =  -0.00000

 Dipole moment (field-independent basis, Debye):
    X=             -9.2967    Y=             -1.8250    Z=              1.1745  Tot=              9.5467
 Quadrupole moment (field-independent basis, Debye-Ang):
   XX=            -99.5384   YY=            -81.3200   ZZ=            -77.7401
   XY=              9.2992   XZ=              0.1255   YZ=              8.9810

 Normal termination of Gaussian 16 at Sun Dec 24 00:57:35 2023.
