 Gaussian 16, Revision C.01,
 Gaussian 16:  ES64L-G16RevC.01  3-Jul-2019

 ----------------------------------------------------------------------
 # wb97xd def2svp geom=allchk scrf=(iefpcm,solvent=toluene) opt=(readfc
 ,ts,noeigen,maxcycles=50,maxstep=10)
 ----------------------------------------------------------------------

 Structure from the checkpoint file:  "cyclic-1_1_hf.chk"
 -----------------------
 cyclic_ts_133_reopt.out
 -----------------------
 Charge =  0 Multiplicity = 1

 SCF Done:  E(RwB97XD) =  -719.225602640     A.U. after   15 cycles
 SCF Done:  E(RwB97XD) =  -719.225606321     A.U. after   10 cycles
 SCF Done:  E(RwB97XD) =  -719.225607494     A.U. after   11 cycles
 SCF Done:  E(RwB97XD) =  -719.225608225     A.U. after   10 cycles
 SCF Done:  E(RwB97XD) =  -719.225608185     A.U. after   10 cycles
 SCF Done:  E(RwB97XD) =  -719.225608446     A.U. after   10 cycles
 SCF Done:  E(RwB97XD) =  -719.225608524     A.U. after    9 cycles
 SCF Done:  E(RwB97XD) =  -719.225608544     A.U. after   10 cycles
 Optimization completed.
    -- Stationary point found.

                         Standard orientation:
 ---------------------------------------------------------------------
 Center     Atomic      Atomic             Coordinates (Angstroms)
 Number     Number       Type             X           Y           Z
 ---------------------------------------------------------------------
      1          6           0        3.539433    0.127789   -0.003808
      2          6           0       -1.453764    1.555064    0.022340
      3          6           0        2.862070   -1.968737    0.007977
      4          6           0       -2.178310    0.435742    0.005624
      5          7           0        3.935469   -1.135767    0.000828
      6          1           0       -0.362455    1.508532    0.025808
      7          1           0       -1.939155    2.535227    0.032938
      8          1           0        2.951234   -3.048334    0.012803
      9          1           0       -1.697234   -0.544310   -0.004252
     10          8           0        2.222110    0.180537   -0.000010
     11          6           0        1.692949   -1.167901    0.007705
     12          8           0        0.507591   -1.354313    0.012071
     13          6           0       -3.662033    0.488334    0.001213
     14          8           0       -4.334310    1.491659    0.010929
     15          8           0       -4.189477   -0.741719   -0.014589
     16          6           0       -5.604800   -0.822178   -0.019285
     17          1           0       -5.853021   -1.889182   -0.021961
     18          1           0       -6.022354   -0.335233   -0.912561
     19          1           0       -6.028477   -0.337803    0.872417
     20          6           0        4.369363    1.271208   -0.012304
     21          7           0        5.066065    2.197100   -0.019217
     22          1           0        4.903961   -1.443472   -0.000457
 ---------------------------------------------------------------------

 The electronic state is 1-A.
 Alpha  occ. eigenvalues --  -19.36219 -19.29649 -19.24419 -19.23531 -14.58765
 Alpha  occ. eigenvalues --  -14.49139 -10.46336 -10.44093 -10.41875 -10.38602
 Alpha  occ. eigenvalues --  -10.36175 -10.34713 -10.30639 -10.29870  -1.27431
 Alpha  occ. eigenvalues --   -1.19700  -1.14321  -1.11053  -1.10034  -1.03895
 Alpha  occ. eigenvalues --   -0.91358  -0.87786  -0.81644  -0.80867  -0.76920
 Alpha  occ. eigenvalues --   -0.73977  -0.70070  -0.64652  -0.63588  -0.63097
 Alpha  occ. eigenvalues --   -0.59499  -0.58810  -0.57135  -0.56157  -0.54065
 Alpha  occ. eigenvalues --   -0.52614  -0.51957  -0.50923  -0.49175  -0.49126
 Alpha  occ. eigenvalues --   -0.48595  -0.48209  -0.47278  -0.45609  -0.45395
 Alpha  occ. eigenvalues --   -0.43296  -0.38441  -0.38319  -0.35737  -0.35614
 Alpha  occ. eigenvalues --   -0.29976
 Alpha virt. eigenvalues --   -0.02733   0.03377   0.04612   0.10715   0.12592
 Alpha virt. eigenvalues --    0.16712   0.16788   0.17151   0.18052   0.18837
 Alpha virt. eigenvalues --    0.19888   0.20493   0.21710   0.21957   0.22204

 Mulliken charges:
               1
     1  C    0.066370
     2  C   -0.031095
     3  C   -0.108391
     4  C   -0.135878
     5  N   -0.014592
     6  H    0.064901
     7  H    0.066097
     8  H    0.084107
     9  H    0.065312
    10  O   -0.253352
    11  C    0.269362
    12  O   -0.243160
    13  C    0.249451
    14  O   -0.275704
    15  O   -0.332601
    16  C    0.127002
    17  H    0.057468
    18  H    0.052313
    19  H    0.052384
    20  C   -0.056528
    21  N    0.093695
    22  H    0.202839
 Sum of Mulliken charges =  -0.00000

 Dipole moment (field-independent basis, Debye):
    X=              6.5664    Y=             -5.4985    Z=             -0.0112  Tot=              8.5645
 Quadrupole moment (field-independent basis, Debye-Ang):
   XX=            -57.3454   YY=            -82.8994   ZZ=            -79.6119
   XY=            -14.2807   XZ=              0.2397   YZ=              0.0613

 Normal termination of Gaussian 16 at Tue Dec 26 17:53:44 2023.
