 Gaussian 16, Revision C.01,
 Gaussian 16:  ES64L-G16RevC.01  3-Jul-2019

 ----------------------------------------------------------------------
 # wb97xd chkbasis guess=read geom=allchk scrf=(iefpcm,solvent=toluene)
  opt=(readfc,ts,noeigen,maxcycles=50,maxstep=10)
 ----------------------------------------------------------------------

 Structure from the checkpoint file:  "cyclic-1_1_opt_sqm.chk"
 -----------------------
 cyclic_ts_133_reopt.out
 -----------------------
 Charge =  0 Multiplicity = 1

 SCF Done:  E(RwB97XD) =  -719.241059448     A.U. after    1 cycles
 SCF Done:  E(RwB97XD) =  -719.241066212     A.U. after   11 cycles
 SCF Done:  E(RwB97XD) =  -719.241067462     A.U. after   11 cycles
 SCF Done:  E(RwB97XD) =  -719.241071428     A.U. after   10 cycles
 SCF Done:  E(RwB97XD) =  -719.241067169     A.U. after   12 cycles
 SCF Done:  E(RwB97XD) =  -719.241070308     A.U. after   10 cycles
 SCF Done:  E(RwB97XD) =  -719.241072476     A.U. after   10 cycles
 SCF Done:  E(RwB97XD) =  -719.241076036     A.U. after   10 cycles
 SCF Done:  E(RwB97XD) =  -719.241079074     A.U. after   10 cycles
 SCF Done:  E(RwB97XD) =  -719.241084651     A.U. after   11 cycles
 SCF Done:  E(RwB97XD) =  -719.241096728     A.U. after   11 cycles
 SCF Done:  E(RwB97XD) =  -719.241122420     A.U. after   12 cycles
 SCF Done:  E(RwB97XD) =  -719.241163176     A.U. after   12 cycles
 SCF Done:  E(RwB97XD) =  -719.241163657     A.U. after    7 cycles
 SCF Done:  E(RwB97XD) =  -719.241169733     A.U. after   11 cycles
 SCF Done:  E(RwB97XD) =  -719.241029397     A.U. after   13 cycles
 SCF Done:  E(RwB97XD) =  -719.241099041     A.U. after   11 cycles
 SCF Done:  E(RwB97XD) =  -719.241164216     A.U. after   12 cycles
 SCF Done:  E(RwB97XD) =  -719.241164876     A.U. after    7 cycles
 SCF Done:  E(RwB97XD) =  -719.241175519     A.U. after   10 cycles
 Optimization completed.
    -- Stationary point found.

                         Standard orientation:
 ---------------------------------------------------------------------
 Center     Atomic      Atomic             Coordinates (Angstroms)
 Number     Number       Type             X           Y           Z
 ---------------------------------------------------------------------
      1          6           0        1.861390    0.762657    0.014954
      2          6           0       -2.844461    2.201316   -0.024899
      3          6           0        2.107727   -1.414031    0.024766
      4          6           0       -3.464053    1.019696   -0.035492
      5          7           0        1.219010   -0.391824    0.042485
      6          1           0       -3.412630    3.133533   -0.048531
      7          1           0       -1.754161    2.273531    0.008727
      8          1           0        1.810654   -2.455631    0.039090
      9          1           0       -4.551799    0.930221   -0.067729
     10          8           0        3.166916    0.563191   -0.021389
     11          6           0        3.416128   -0.861382   -0.018062
     12          8           0        4.540936   -1.280744   -0.048440
     13          6           0       -2.701888   -0.247763   -0.004049
     14          8           0       -1.489160   -0.337992    0.026587
     15          8           0       -3.495518   -1.305699   -0.014174
     16          6           0       -2.879400   -2.588426    0.010001
     17          1           0       -3.693318   -3.317286   -0.054702
     18          1           0       -2.319297   -2.729101    0.945212
     19          1           0       -2.195913   -2.705860   -0.842486
     20          6           0        1.257540    2.039470    0.020764
     21          7           0        0.727841    3.070950    0.026577
     22          1           0        0.185211   -0.462549    0.068402
 ---------------------------------------------------------------------

 The electronic state is 1-A.
 Alpha  occ. eigenvalues --  -19.34327 -19.33194 -19.27993 -19.22730 -14.55650
 Alpha  occ. eigenvalues --  -14.47904 -10.46235 -10.44107 -10.42450 -10.37569
 Alpha  occ. eigenvalues --  -10.37254 -10.34433 -10.33563 -10.33064  -1.25453
 Alpha  occ. eigenvalues --   -1.23663  -1.14041  -1.12512  -1.08773  -1.02743
 Alpha  occ. eigenvalues --   -0.91036  -0.89508  -0.84779  -0.78615  -0.74687
 Alpha  occ. eigenvalues --   -0.73178  -0.72186  -0.66887  -0.64417  -0.62158
 Alpha  occ. eigenvalues --   -0.61202  -0.60470  -0.59743  -0.56961  -0.55338
 Alpha  occ. eigenvalues --   -0.52409  -0.52133  -0.51581  -0.50497  -0.49345
 Alpha  occ. eigenvalues --   -0.48920  -0.47906  -0.46745  -0.46435  -0.45852
 Alpha  occ. eigenvalues --   -0.44133  -0.42006  -0.40359  -0.38618  -0.36744
 Alpha  occ. eigenvalues --   -0.28338
 Alpha virt. eigenvalues --   -0.00981   0.00135   0.05720   0.13115   0.13704
 Alpha virt. eigenvalues --    0.14185   0.15924   0.16941   0.17876   0.18172
 Alpha virt. eigenvalues --    0.19298   0.20177   0.20845   0.21243   0.22038

 Mulliken charges:
               1
     1  C    0.035846
     2  C   -0.004667
     3  C   -0.120744
     4  C   -0.127015
     5  N   -0.010596
     6  H    0.084896
     7  H    0.071636
     8  H    0.068692
     9  H    0.065858
    10  O   -0.257257
    11  C    0.256516
    12  O   -0.259632
    13  C    0.303665
    14  O   -0.323019
    15  O   -0.310724
    16  C    0.115739
    17  H    0.074101
    18  H    0.063310
    19  H    0.062171
    20  C   -0.020485
    21  N    0.047527
    22  H    0.184184
 Sum of Mulliken charges =  -0.00000

 Dipole moment (field-independent basis, Debye):
    X=             -9.2233    Y=             -2.7373    Z=              0.1187  Tot=              9.6216
 Quadrupole moment (field-independent basis, Debye-Ang):
   XX=           -102.1664   YY=            -78.2427   ZZ=            -79.4710
   XY=              6.9537   XZ=              0.5913   YZ=             -0.3606

 Normal termination of Gaussian 16 at Tue Dec 26 18:39:03 2023.
