 Gaussian 16, Revision C.01,
 Gaussian 16:  ES64L-G16RevC.01  3-Jul-2019

 -----------------------------------------------------------
 # wb97xd def2svp scrf=(iefpcm,solvent=toluene) freq=noraman
 -----------------------------------------------------------

 ------------------------
 da-2_1_opt_sqm_reopt.out
 ------------------------
 Symbolic Z-matrix:
 Charge =  0 Multiplicity = 1

                         Standard orientation:
 ---------------------------------------------------------------------
 Center     Atomic      Atomic             Coordinates (Angstroms)
 Number     Number       Type             X           Y           Z
 ---------------------------------------------------------------------
      1          6           0       -2.175261    0.626739    0.274470
      2          6           0        0.331650   -1.042859    1.263330
      3          6           0        0.199308    2.576091    0.371620
      4          6           0        1.378869   -0.218379    1.329130
      5          6           0       -1.408911    1.011920   -0.760530
      6          6           0       -0.320382    1.994030   -0.719590
      7          1           0        1.026147    3.284471    0.287380
      8          1           0       -0.182152    2.379270    1.377620
      9          1           0       -2.024671    1.107469    1.248360
     10          1           0       -0.363410   -1.348790    2.042660
     11          1           0        1.775989    0.336182    2.176820
     12          8           0        1.256660   -0.971449   -0.853210
     13          6           0        0.241920   -1.556289   -0.132090
     14          6           0        2.005799   -0.166068   -0.021730
     15          8           0       -0.512259   -2.341580   -0.614820
     16          8           0        2.976989    0.407512   -0.397840
     17          6           0       -3.246191   -0.422941    0.186770
     18          1           0       -4.037561   -0.127722   -0.520280
     19          1           0       -2.828160   -1.377691   -0.170890
     20          1           0       -3.719820   -0.601172    1.161310
     21          1           0       -1.582141    0.539810   -1.734400
     22          1           0        0.123858    2.238841   -1.689930
 ---------------------------------------------------------------------

 SCF Done:  E(RwB97XD) =  -573.998631351     A.U. after   14 cycles

 The electronic state is 1-A.
 Alpha  occ. eigenvalues --  -19.33314 -19.28007 -19.27860 -10.46132 -10.46013
 Alpha  occ. eigenvalues --  -10.35481 -10.35402 -10.31562 -10.31364 -10.30625
 Alpha  occ. eigenvalues --  -10.30593 -10.29895  -1.25212  -1.17961  -1.14138
 Alpha  occ. eigenvalues --   -0.94334  -0.91226  -0.85508  -0.79638  -0.77620
 Alpha  occ. eigenvalues --   -0.73531  -0.69444  -0.68740  -0.62073  -0.60672
 Alpha  occ. eigenvalues --   -0.60453  -0.57623  -0.56917  -0.55626  -0.54403
 Alpha  occ. eigenvalues --   -0.53381  -0.51997  -0.50503  -0.49794  -0.49496
 Alpha  occ. eigenvalues --   -0.47774  -0.43648  -0.43487  -0.42989  -0.42037
 Alpha  occ. eigenvalues --   -0.41094  -0.39126  -0.38144  -0.31111
 Alpha virt. eigenvalues --   -0.03733   0.02283   0.10936   0.12123   0.13696
 Alpha virt. eigenvalues --    0.15356   0.15896   0.16192   0.17118   0.19449
 Alpha virt. eigenvalues --    0.21090   0.21496   0.22498   0.24150   0.25022

 Mulliken charges:
               1
     1  C   -0.133935
     2  C   -0.066378
     3  C   -0.077062
     4  C   -0.080365
     5  C   -0.054543
     6  C   -0.070339
     7  H    0.067890
     8  H    0.045235
     9  H    0.036122
    10  H    0.074556
    11  H    0.077009
    12  O   -0.288183
    13  C    0.294727
    14  C    0.293771
    15  O   -0.177961
    16  O   -0.170941
    17  C   -0.026400
    18  H    0.064838
    19  H    0.064892
    20  H    0.042646
    21  H    0.036624
    22  H    0.047797
 Sum of Mulliken charges =  -0.00000

 Dipole moment (field-independent basis, Debye):
    X=             -1.8594    Y=              1.0025    Z=              4.0815  Tot=              4.5957
 Quadrupole moment (field-independent basis, Debye-Ang):
   XX=            -75.5114   YY=            -75.0175   ZZ=            -64.6438
   XY=             -0.9656   XZ=              3.5226   YZ=             -3.3632

  Exact polarizability:     134.684      35.962     110.200      -0.679       3.701      99.536
 Approx polarizability:     132.070      41.240     110.956      -1.493       6.132     107.664

 ******    1 imaginary frequencies (negative Signs) ******

                      1                      2                      3
                      A                      A                      A
 Frequencies --   -179.4029                33.4309                69.5012
 Red. masses --      1.0989                 5.1199                 3.1362
 Frc consts  --      0.0208                 0.0034                 0.0089
 IR Inten    --      0.9379                 1.2692                 0.0903

                      4                      5                      6
                      A                      A                      A
 Frequencies --     89.4697                97.0295               106.0453
 Red. masses --      4.8593                 2.2301                 4.4600
 Frc consts  --      0.0229                 0.0124                 0.0296
 IR Inten    --      5.3458                 3.0682                 5.2145

                      7                      8                      9
                      A                      A                      A
 Frequencies --    118.0985               124.8267               186.3659
 Red. masses --      4.0413                 2.6645                14.4067
 Frc consts  --      0.0332                 0.0245                 0.2948
 IR Inten    --      6.3751                 1.9831                 7.4328

                     10                     11                     12
                      A                      A                      A
 Frequencies --    220.7586               264.9345               288.7368
 Red. masses --      2.8036                 2.1817                 4.0309
 Frc consts  --      0.0805                 0.0902                 0.1980
 IR Inten    --      0.0380                10.1839                 0.1724

                     13                     14                     15
                      A                      A                      A
 Frequencies --    387.4420               417.5869               582.2669
 Red. masses --      2.9004                12.7223                 4.5113
 Frc consts  --      0.2565                 1.3071                 0.9011
 IR Inten    --      1.3587                13.3178                 1.5408

                     16                     17                     18
                      A                      A                      A
 Frequencies --    602.3610               643.7334               651.1123
 Red. masses --      2.4869                 1.4579                 7.3064
 Frc consts  --      0.5316                 0.3560                 1.8250
 IR Inten    --      3.7550                 4.8242                 0.1966

                     19                     20                     21
                      A                      A                      A
 Frequencies --    661.8585               716.3224               773.8039
 Red. masses --      2.4423                 8.6937                 7.9413
 Frc consts  --      0.6304                 2.6283                 2.8016
 IR Inten    --     10.4844                33.2922                 0.1709

                     22                     23                     24
                      A                      A                      A
 Frequencies --    837.5680               858.3955               908.1296
 Red. masses --      1.5987                 2.0184                 9.1015
 Frc consts  --      0.6608                 0.8763                 4.4224
 IR Inten    --      6.4744               108.9448                 7.0320

                     25                     26                     27
                      A                      A                      A
 Frequencies --    934.4251               950.4424               965.6439
 Red. masses --      1.7977                 1.3726                 6.1881
 Frc consts  --      0.9248                 0.7306                 3.3997
 IR Inten    --      2.8950                51.7730               137.4765

                     28                     29                     30
                      A                      A                      A
 Frequencies --    993.4980              1011.6991              1017.2031
 Red. masses --      1.3002                 1.1249                 1.8074
 Frc consts  --      0.7561                 0.6784                 1.1019
 IR Inten    --      1.0170                58.2722                 4.6755

                     31                     32                     33
                      A                      A                      A
 Frequencies --   1044.2143              1055.0733              1064.1893
 Red. masses --      1.1513                 1.5184                 1.1184
 Frc consts  --      0.7396                 0.9958                 0.7463
 IR Inten    --     14.1719                 1.9920                19.1616

                     34                     35                     36
                      A                      A                      A
 Frequencies --   1079.3482              1092.7076              1140.5381
 Red. masses --      1.5177                 3.1473                 2.0483
 Frc consts  --      1.0418                 2.2141                 1.5699
 IR Inten    --      3.9104               107.7818                 2.7245

                     37                     38                     39
                      A                      A                      A
 Frequencies --   1304.3807              1316.0790              1320.3944
 Red. masses --      1.3239                 6.8479                 1.3143
 Frc consts  --      1.3271                 6.9883                 1.3501
 IR Inten    --      4.1881               176.5531                 8.2397

                     40                     41                     42
                      A                      A                      A
 Frequencies --   1337.6504              1356.8328              1397.9918
 Red. masses --      1.9910                 1.3151                 1.2674
 Frc consts  --      2.0989                 1.4265                 1.4594
 IR Inten    --      1.4321                 1.7153                 6.6760

                     43                     44                     45
                      A                      A                      A
 Frequencies --   1441.7867              1464.8143              1470.1275
 Red. masses --      1.2183                 1.0489                 1.0615
 Frc consts  --      1.4921                 1.3260                 1.3517
 IR Inten    --      5.4344                10.5269                11.6031

                     46                     47                     48
                      A                      A                      A
 Frequencies --   1694.4141              1712.1641              1739.1818
 Red. masses --      6.5879                 5.1436                 5.3229
 Frc consts  --     11.1440                 8.8841                 9.4861
 IR Inten    --     12.4404                16.9282                20.2855

                     49                     50                     51
                      A                      A                      A
 Frequencies --   1911.4672              1984.5643              3049.6593
 Red. masses --     12.8375                12.6707                 1.0385
 Frc consts  --     27.6353                29.4023                 5.6909
 IR Inten    --    851.3667               117.0474                20.2966

                     52                     53                     54
                      A                      A                      A
 Frequencies --   3135.0914              3160.2891              3163.8742
 Red. masses --      1.1026                 1.0963                 1.0624
 Frc consts  --      6.3852                 6.4508                 6.2658
 IR Inten    --      5.1520                10.0278                 3.5730

                     55                     56                     57
                      A                      A                      A
 Frequencies --   3168.1902              3174.1499              3189.2512
 Red. masses --      1.0933                 1.0928                 1.0946
 Frc consts  --      6.4659                 6.4868                 6.5595
 IR Inten    --      8.1759                21.1612                 7.8029

                     58                     59                     60
                      A                      A                      A
 Frequencies --   3268.3891              3272.8609              3293.8349
 Red. masses --      1.1169                 1.0913                 1.1136
 Frc consts  --      7.0297                 6.8876                 7.1186
 IR Inten    --      3.9283                 2.5433                 5.1297

 - Thermochemistry -
 -------------------
 Temperature   298.150 Kelvin.  Pressure   1.00000 Atm.
 Atom     1 has atomic number  6 and mass  12.00000

 Molecular mass:   166.06299 amu.
 Principal axes and moments of inertia in atomic units:
                           1         2         3
     Eigenvalues --  1495.403522139.095472942.23694
           X            0.99916   0.04084   0.00268
           Y           -0.04083   0.99915  -0.00592
           Z           -0.00292   0.00581   0.99998
 This molecule is an asymmetric top.
 Rotational symmetry number  1.
 Warning -- assumption of classical behavior for rotation
           may cause significant error
 Rotational temperatures (Kelvin)      0.05792     0.04049     0.02944
 Rotational constants (GHZ):           1.20686     0.84369     0.61339
    1 imaginary frequencies ignored.
 Zero-point vibrational energy     450490.9 (Joules/Mol)
                                  107.66991 (Kcal/Mol)
 Warning -- explicit consideration of  15 degrees of freedom as
           vibrations may cause significant error
 Vibrational temperatures:     48.10   100.00   128.73   139.60   152.58
          (Kelvin)            169.92   179.60   268.14   317.62   381.18
                              415.43   557.44   600.81   837.75   866.66
                              926.19   936.81   952.27  1030.63  1113.33
                             1205.07  1235.04  1306.60  1344.43  1367.47
                             1389.35  1429.42  1455.61  1463.53  1502.39
                             1518.02  1531.13  1552.94  1572.16  1640.98
                             1876.71  1893.54  1899.75  1924.58  1952.18
                             2011.40  2074.41  2107.54  2115.19  2437.88
                             2463.42  2502.29  2750.17  2855.35  4387.78
                             4510.70  4546.95  4552.11  4558.32  4566.89
                             4588.62  4702.48  4708.92  4739.09

 Zero-point correction=                           0.171583 (Hartree/Particle)
 Thermal correction to Energy=                    0.183906
 Thermal correction to Enthalpy=                  0.184851
 Thermal correction to Gibbs Free Energy=         0.131729
 Sum of electronic and zero-point Energies=           -573.827048
 Sum of electronic and thermal Energies=              -573.814725
 Sum of electronic and thermal Enthalpies=            -573.813781
 Sum of electronic and thermal Free Energies=         -573.866902

                     E (Thermal)             CV                S
                      KCal/Mol        Cal/Mol-Kelvin    Cal/Mol-Kelvin
 Total                  115.403             43.043            111.804
 Electronic               0.000              0.000              0.000
 Translational            0.889              2.981             41.230
 Rotational               0.889              2.981             30.621
 Vibrational            113.626             37.082             39.953
 Vibration     1          0.594              1.983              5.615
 Vibration     2          0.598              1.969              4.167
 Vibration     3          0.602              1.957              3.672
 Vibration     4          0.603              1.951              3.513
 Vibration     5          0.605              1.944              3.340
 Vibration     6          0.608              1.934              3.131
 Vibration     7          0.610              1.928              3.024
 Vibration     8          0.632              1.859              2.264
 Vibration     9          0.647              1.809              1.953
 Vibration    10          0.671              1.737              1.629
 Vibration    11          0.685              1.695              1.481
 Vibration    12          0.756              1.497              1.010
 Vibration    13          0.781              1.432              0.900
 Vibration    14          0.939              1.070              0.481
 Vibration    15          0.961              1.027              0.446

 Normal termination of Gaussian 16 at Sat Dec 30 20:55:02 2023.
