 Gaussian 16, Revision C.01,
 Gaussian 16:  ES64L-G16RevC.01  3-Jul-2019

 -----------------------------------------------------------
 # wb97xd def2svp scrf=(iefpcm,solvent=toluene) freq=noraman
 -----------------------------------------------------------

 ---------------------
 da-2_1_opt_dft_re.out
 ---------------------
 Symbolic Z-matrix:
 Charge =  0 Multiplicity = 1

                         Standard orientation:
 ---------------------------------------------------------------------
 Center     Atomic      Atomic             Coordinates (Angstroms)
 Number     Number       Type             X           Y           Z
 ---------------------------------------------------------------------
      1          6           0       -2.175079    0.626795    0.274469
      2          6           0        0.331478   -1.042759    1.263339
      3          6           0        0.199574    2.576041    0.371569
      4          6           0        1.378760   -0.218361    1.329129
      5          6           0       -1.408848    1.012024   -0.760591
      6          6           0       -0.320167    1.993972   -0.719621
      7          1           0        1.026515    3.284290    0.287269
      8          1           0       -0.181886    2.379372    1.377609
      9          1           0       -2.024288    1.107375    1.248399
     10          1           0       -0.363662   -1.348568    2.042659
     11          1           0        1.775871    0.336299    2.176759
     12          8           0        1.256569   -0.971571   -0.853171
     13          6           0        0.241718   -1.556249   -0.132071
     14          6           0        2.005780   -0.166232   -0.021711
     15          8           0       -0.512544   -2.341438   -0.614821
     16          8           0        2.977081    0.407167   -0.397801
     17          6           0       -3.246171   -0.422723    0.186799
     18          1           0       -4.037570   -0.127332   -0.520151
     19          1           0       -2.828312   -1.377504   -0.170991
     20          1           0       -3.719711   -0.600983    1.161359
     21          1           0       -1.582249    0.540074   -1.734501
     22          1           0        0.124174    2.238671   -1.689941
 ---------------------------------------------------------------------

 SCF Done:  E(RwB97XD) =  -573.998631338     A.U. after   14 cycles

 The electronic state is 1-A.
 Alpha  occ. eigenvalues --  -19.33314 -19.28007 -19.27860 -10.46132 -10.46013
 Alpha  occ. eigenvalues --  -10.35480 -10.35402 -10.31562 -10.31365 -10.30625
 Alpha  occ. eigenvalues --  -10.30593 -10.29895  -1.25212  -1.17961  -1.14138
 Alpha  occ. eigenvalues --   -0.94333  -0.91226  -0.85508  -0.79637  -0.77621
 Alpha  occ. eigenvalues --   -0.73531  -0.69444  -0.68739  -0.62073  -0.60672
 Alpha  occ. eigenvalues --   -0.60452  -0.57623  -0.56917  -0.55626  -0.54403
 Alpha  occ. eigenvalues --   -0.53381  -0.51997  -0.50503  -0.49793  -0.49496
 Alpha  occ. eigenvalues --   -0.47774  -0.43648  -0.43488  -0.42989  -0.42038
 Alpha  occ. eigenvalues --   -0.41094  -0.39126  -0.38144  -0.31111
 Alpha virt. eigenvalues --   -0.03733   0.02282   0.10936   0.12123   0.13695
 Alpha virt. eigenvalues --    0.15356   0.15896   0.16192   0.17119   0.19449
 Alpha virt. eigenvalues --    0.21090   0.21496   0.22497   0.24150   0.25023

 Mulliken charges:
               1
     1  C   -0.133925
     2  C   -0.066401
     3  C   -0.077061
     4  C   -0.080362
     5  C   -0.054524
     6  C   -0.070360
     7  H    0.067891
     8  H    0.045241
     9  H    0.036118
    10  H    0.074560
    11  H    0.077008
    12  O   -0.288190
    13  C    0.294730
    14  C    0.293761
    15  O   -0.177954
    16  O   -0.170940
    17  C   -0.026388
    18  H    0.064837
    19  H    0.064898
    20  H    0.042642
    21  H    0.036621
    22  H    0.047798
 Sum of Mulliken charges =  -0.00000

 Dipole moment (field-independent basis, Debye):
    X=             -1.8597    Y=              1.0031    Z=              4.0813  Tot=              4.5958
 Quadrupole moment (field-independent basis, Debye-Ang):
   XX=            -75.5125   YY=            -75.0171   ZZ=            -64.6438
   XY=             -0.9644   XZ=              3.5220   YZ=             -3.3630

  Exact polarizability:     134.691      35.957     110.195      -0.677       3.700      99.536
 Approx polarizability:     132.078      41.236     110.950      -1.491       6.131     107.665

 ******    1 imaginary frequencies (negative Signs) ******

                      1                      2                      3
                      A                      A                      A
 Frequencies --   -179.4524                33.4222                69.4968
 Red. masses --      1.0988                 5.1196                 3.1373
 Frc consts  --      0.0208                 0.0034                 0.0089
 IR Inten    --      0.9380                 1.2693                 0.0887

                      4                      5                      6
                      A                      A                      A
 Frequencies --     89.4157                97.0453               106.0763
 Red. masses --      4.8586                 2.2310                 4.4658
 Frc consts  --      0.0229                 0.0124                 0.0296
 IR Inten    --      5.3199                 3.0939                 5.2137

                      7                      8                      9
                      A                      A                      A
 Frequencies --    118.0380               124.7999               186.3397
 Red. masses --      4.0389                 2.6625                14.4081
 Frc consts  --      0.0332                 0.0244                 0.2948
 IR Inten    --      6.4204                 1.9420                 7.4329

                     10                     11                     12
                      A                      A                      A
 Frequencies --    220.7828               264.9338               288.7375
 Red. masses --      2.8036                 2.1818                 4.0310
 Frc consts  --      0.0805                 0.0902                 0.1980
 IR Inten    --      0.0381                10.1895                 0.1725

                     13                     14                     15
                      A                      A                      A
 Frequencies --    387.4419               417.5786               582.2581
 Red. masses --      2.9005                12.7222                 4.5114
 Frc consts  --      0.2565                 1.3070                 0.9011
 IR Inten    --      1.3580                13.3173                 1.5421

                     16                     17                     18
                      A                      A                      A
 Frequencies --    602.3727               643.7088               651.1097
 Red. masses --      2.4872                 1.4577                 7.3095
 Frc consts  --      0.5317                 0.3559                 1.8258
 IR Inten    --      3.7565                 4.8245                 0.1961

                     19                     20                     21
                      A                      A                      A
 Frequencies --    661.8577               716.3116               773.7815
 Red. masses --      2.4427                 8.6937                 7.9418
 Frc consts  --      0.6304                 2.6282                 2.8016
 IR Inten    --     10.4957                33.2951                 0.1718

                     22                     23                     24
                      A                      A                      A
 Frequencies --    837.5657               858.3930               908.1132
 Red. masses --      1.5987                 2.0180                 9.1014
 Frc consts  --      0.6608                 0.8761                 4.4222
 IR Inten    --      6.4569               108.9584                 7.0299

                     25                     26                     27
                      A                      A                      A
 Frequencies --    934.4159               950.4414               965.6391
 Red. masses --      1.7977                 1.3726                 6.1883
 Frc consts  --      0.9248                 0.7306                 3.3998
 IR Inten    --      2.8932                51.7789               137.4862

                     28                     29                     30
                      A                      A                      A
 Frequencies --    993.5025              1011.6833              1017.2034
 Red. masses --      1.3001                 1.1249                 1.8076
 Frc consts  --      0.7561                 0.6783                 1.1020
 IR Inten    --      1.0214                58.2713                 4.6722

                     31                     32                     33
                      A                      A                      A
 Frequencies --   1044.2105              1055.0748              1064.2004
 Red. masses --      1.1512                 1.5183                 1.1184
 Frc consts  --      0.7396                 0.9958                 0.7463
 IR Inten    --     14.1791                 1.9972                19.1684

                     34                     35                     36
                      A                      A                      A
 Frequencies --   1079.3350              1092.6917              1140.5488
 Red. masses --      1.5177                 3.1477                 2.0484
 Frc consts  --      1.0417                 2.2143                 1.5700
 IR Inten    --      3.9129               107.7784                 2.7224

                     37                     38                     39
                      A                      A                      A
 Frequencies --   1304.3856              1316.0573              1320.3990
 Red. masses --      1.3238                 6.8638                 1.3138
 Frc consts  --      1.3270                 7.0043                 1.3496
 IR Inten    --      4.1863               176.6336                 8.1794

                     40                     41                     42
                      A                      A                      A
 Frequencies --   1337.6398              1356.8337              1397.9926
 Red. masses --      1.9907                 1.3151                 1.2674
 Frc consts  --      2.0986                 1.4264                 1.4594
 IR Inten    --      1.4306                 1.7144                 6.6740

                     43                     44                     45
                      A                      A                      A
 Frequencies --   1441.8008              1464.8062              1470.1262
 Red. masses --      1.2183                 1.0488                 1.0615
 Frc consts  --      1.4921                 1.3259                 1.3517
 IR Inten    --      5.4316                10.5298                11.6084

                     46                     47                     48
                      A                      A                      A
 Frequencies --   1694.4186              1712.1470              1739.2001
 Red. masses --      6.5868                 5.1425                 5.3239
 Frc consts  --     11.1421                 8.8820                 9.4882
 IR Inten    --     12.4581                16.9095                20.3058

                     49                     50                     51
                      A                      A                      A
 Frequencies --   1911.4935              1984.5871              3049.6718
 Red. masses --     12.8376                12.6708                 1.0386
 Frc consts  --     27.6362                29.4031                 5.6910
 IR Inten    --    851.4084               117.0380                20.2805

                     52                     53                     54
                      A                      A                      A
 Frequencies --   3135.0664              3160.3546              3163.8522
 Red. masses --      1.1026                 1.0961                 1.0625
 Frc consts  --      6.3850                 6.4501                 6.2665
 IR Inten    --      5.1523                10.0363                 3.5477

                     55                     56                     57
                      A                      A                      A
 Frequencies --   3168.2461              3174.2091              3189.2648
 Red. masses --      1.0933                 1.0928                 1.0946
 Frc consts  --      6.4660                 6.4874                 6.5595
 IR Inten    --      8.2369                21.1222                 7.8092

                     58                     59                     60
                      A                      A                      A
 Frequencies --   3268.3750              3272.8005              3293.7879
 Red. masses --      1.1169                 1.0914                 1.1136
 Frc consts  --      7.0296                 6.8874                 7.1184
 IR Inten    --      3.9231                 2.5456                 5.1277

 - Thermochemistry -
 -------------------
 Temperature   298.150 Kelvin.  Pressure   1.00000 Atm.
 Atom     1 has atomic number  6 and mass  12.00000

 Molecular mass:   166.06299 amu.
 Principal axes and moments of inertia in atomic units:
                           1         2         3
     Eigenvalues --  1495.324012139.054942942.11621
           X            0.99916   0.04084   0.00267
           Y           -0.04083   0.99915  -0.00592
           Z           -0.00291   0.00581   0.99998
 This molecule is an asymmetric top.
 Rotational symmetry number  1.
 Warning -- assumption of classical behavior for rotation
           may cause significant error
 Rotational temperatures (Kelvin)      0.05792     0.04049     0.02944
 Rotational constants (GHZ):           1.20692     0.84371     0.61342
    1 imaginary frequencies ignored.
 Zero-point vibrational energy     450490.0 (Joules/Mol)
                                  107.66969 (Kcal/Mol)
 Warning -- explicit consideration of  15 degrees of freedom as
           vibrations may cause significant error
 Vibrational temperatures:     48.09    99.99   128.65   139.63   152.62
          (Kelvin)            169.83   179.56   268.10   317.66   381.18
                              415.43   557.44   600.80   837.74   866.68
                              926.15   936.80   952.27  1030.61  1113.30
                             1205.07  1235.04  1306.57  1344.42  1367.47
                             1389.34  1429.43  1455.59  1463.53  1502.39
                             1518.02  1531.15  1552.92  1572.14  1641.00
                             1876.72  1893.51  1899.76  1924.57  1952.18
                             2011.40  2074.43  2107.53  2115.18  2437.89
                             2463.40  2502.32  2750.21  2855.38  4387.80
                             4510.66  4547.05  4552.08  4558.40  4566.98
                             4588.64  4702.46  4708.83  4739.03

 Zero-point correction=                           0.171583 (Hartree/Particle)
 Thermal correction to Energy=                    0.183906
 Thermal correction to Enthalpy=                  0.184850
 Thermal correction to Gibbs Free Energy=         0.131728
 Sum of electronic and zero-point Energies=           -573.827049
 Sum of electronic and thermal Energies=              -573.814725
 Sum of electronic and thermal Enthalpies=            -573.813781
 Sum of electronic and thermal Free Energies=         -573.866904

                     E (Thermal)             CV                S
                      KCal/Mol        Cal/Mol-Kelvin    Cal/Mol-Kelvin
 Total                  115.403             43.043            111.806
 Electronic               0.000              0.000              0.000
 Translational            0.889              2.981             41.230
 Rotational               0.889              2.981             30.621
 Vibrational            113.625             37.082             39.955
 Vibration     1          0.594              1.983              5.615
 Vibration     2          0.598              1.969              4.168
 Vibration     3          0.602              1.957              3.673
 Vibration     4          0.603              1.951              3.513
 Vibration     5          0.605              1.944              3.339
 Vibration     6          0.608              1.934              3.132
 Vibration     7          0.610              1.928              3.025
 Vibration     8          0.632              1.859              2.264
 Vibration     9          0.647              1.809              1.953
 Vibration    10          0.671              1.737              1.629
 Vibration    11          0.685              1.695              1.481
 Vibration    12          0.756              1.497              1.010
 Vibration    13          0.781              1.432              0.900
 Vibration    14          0.939              1.070              0.481
 Vibration    15          0.961              1.027              0.446

 Normal termination of Gaussian 16 at Sat Dec 30 20:54:36 2023.
