 Gaussian 16, Revision C.01,
 Gaussian 16:  ES64L-G16RevC.01  3-Jul-2019

 ----------------------------------------------------------------------
 # wb97xd def2svp geom=allchk scrf=(iefpcm,solvent=toluene) opt=(readfc
 ,ts,noeigen,maxcycles=50,maxstep=10)
 ----------------------------------------------------------------------

 Structure from the checkpoint file:  "da-2_1_hf.chk"
 -----------------------
 1d_2b_endo_2_reopt3.out
 -----------------------
 Charge =  0 Multiplicity = 1

 SCF Done:  E(RwB97XD) =  -573.991729174     A.U. after   14 cycles
 SCF Done:  E(RwB97XD) =  -573.991814009     A.U. after   13 cycles
 SCF Done:  E(RwB97XD) =  -573.991874912     A.U. after   11 cycles
 SCF Done:  E(RwB97XD) =  -573.991924796     A.U. after   12 cycles
 SCF Done:  E(RwB97XD) =  -573.991971415     A.U. after   12 cycles
 SCF Done:  E(RwB97XD) =  -573.992017653     A.U. after   12 cycles
 SCF Done:  E(RwB97XD) =  -573.992067174     A.U. after   12 cycles
 SCF Done:  E(RwB97XD) =  -573.992115075     A.U. after   12 cycles
 SCF Done:  E(RwB97XD) =  -573.992167445     A.U. after   12 cycles
 SCF Done:  E(RwB97XD) =  -573.992221830     A.U. after   12 cycles
 SCF Done:  E(RwB97XD) =  -573.993076335     A.U. after   10 cycles
 SCF Done:  E(RwB97XD) =  -573.993077053     A.U. after   10 cycles
 SCF Done:  E(RwB97XD) =  -573.993071187     A.U. after   12 cycles
 SCF Done:  E(RwB97XD) =  -573.993077693     A.U. after   12 cycles
 SCF Done:  E(RwB97XD) =  -573.993077782     A.U. after    9 cycles
 SCF Done:  E(RwB97XD) =  -573.993077845     A.U. after    8 cycles
 SCF Done:  E(RwB97XD) =  -573.993077865     A.U. after   10 cycles
 SCF Done:  E(RwB97XD) =  -573.993077874     A.U. after    9 cycles
 SCF Done:  E(RwB97XD) =  -573.993077896     A.U. after    9 cycles
 SCF Done:  E(RwB97XD) =  -573.993077894     A.U. after    9 cycles
 Optimization completed.
    -- Stationary point found.

                         Standard orientation:
 ---------------------------------------------------------------------
 Center     Atomic      Atomic             Coordinates (Angstroms)
 Number     Number       Type             X           Y           Z
 ---------------------------------------------------------------------
      1          6           0       -2.664028   -1.287062    0.005400
      2          6           0        3.578358    0.079495    0.025962
      3          6           0       -4.500459    1.204427    0.019030
      4          6           0        3.112940    1.328832    0.020447
      5          6           0       -2.283540   -0.001286   -0.008237
      6          6           0       -3.161802    1.180590   -0.000832
      7          1           0       -5.044579    2.151755    0.022812
      8          1           0       -5.102836    0.291012    0.032091
      9          1           0       -3.734065   -1.530541    0.024041
     10          1           0        4.605885   -0.278928    0.045727
     11          1           0        3.655057    2.272544    0.034414
     12          8           0        1.271512   -0.068867   -0.021609
     13          6           0        2.407256   -0.845583   -0.000427
     14          6           0        1.622143    1.261491   -0.010133
     15          8           0        2.365870   -2.033147   -0.004268
     16          8           0        0.813740    2.132729   -0.023492
     17          6           0       -1.725408   -2.452715   -0.002858
     18          1           0       -1.904520   -3.095993   -0.880415
     19          1           0       -0.673909   -2.132545   -0.018756
     20          1           0       -1.879881   -3.088638    0.884663
     21          1           0       -1.211624    0.217289   -0.026605
     22          1           0       -2.631271    2.139187   -0.013142
 ---------------------------------------------------------------------

 The electronic state is 1-A.
 Alpha  occ. eigenvalues --  -19.34497 -19.29310 -19.29286 -10.47188 -10.47165
 Alpha  occ. eigenvalues --  -10.36659 -10.36583 -10.29621 -10.29497 -10.28754
 Alpha  occ. eigenvalues --  -10.28702 -10.28570  -1.26527  -1.19286  -1.15452
 Alpha  occ. eigenvalues --   -0.95528  -0.89287  -0.83878  -0.80824  -0.76051
 Alpha  occ. eigenvalues --   -0.74701  -0.69965  -0.67646  -0.61728  -0.61561
 Alpha  occ. eigenvalues --   -0.60357  -0.58027  -0.56702  -0.55872  -0.54464
 Alpha  occ. eigenvalues --   -0.52783  -0.52673  -0.51744  -0.48912  -0.47986
 Alpha  occ. eigenvalues --   -0.46043  -0.44268  -0.43062  -0.41855  -0.41532
 Alpha  occ. eigenvalues --   -0.41064  -0.39327  -0.39309  -0.29365
 Alpha virt. eigenvalues --   -0.05096   0.04420   0.10048   0.12625   0.15059
 Alpha virt. eigenvalues --    0.16392   0.16980   0.17430   0.17468   0.18666
 Alpha virt. eigenvalues --    0.20466   0.22551   0.22747   0.24771   0.25484

 Mulliken charges:
               1
     1  C   -0.125031
     2  C   -0.067250
     3  C   -0.096193
     4  C   -0.042989
     5  C   -0.048058
     6  C   -0.050273
     7  H    0.052203
     8  H    0.042119
     9  H    0.023527
    10  H    0.089167
    11  H    0.089177
    12  O   -0.286103
    13  C    0.305662
    14  C    0.290400
    15  O   -0.168404
    16  O   -0.169765
    17  C   -0.015381
    18  H    0.047476
    19  H    0.041113
    20  H    0.047286
    21  H    0.009655
    22  H    0.031663
 Sum of Mulliken charges =  -0.00000

 Dipole moment (field-independent basis, Debye):
    X=              5.1954    Y=              1.1553    Z=              0.0868  Tot=              5.3230
 Quadrupole moment (field-independent basis, Debye-Ang):
   XX=            -50.6079   YY=            -74.0580   ZZ=            -71.6038
   XY=             10.2956   XZ=              0.1300   YZ=              0.0398

 Normal termination of Gaussian 16 at Mon Dec 25 23:20:51 2023.
