 Gaussian 16, Revision C.01,
 Gaussian 16:  ES64L-G16RevC.01  3-Jul-2019

 -----------------------------------------------------------
 # wb97xd def2svp scrf=(iefpcm,solvent=toluene) freq=noraman
 -----------------------------------------------------------

 ------------------------
 da-2_1_opt_dft_reopt.out
 ------------------------
 Symbolic Z-matrix:
 Charge =  0 Multiplicity = 1

                         Standard orientation:
 ---------------------------------------------------------------------
 Center     Atomic      Atomic             Coordinates (Angstroms)
 Number     Number       Type             X           Y           Z
 ---------------------------------------------------------------------
      1          6           0       -2.174940    0.626907    0.274329
      2          6           0        0.331533   -1.042709    1.263499
      3          6           0        0.199677    2.576191    0.371899
      4          6           0        1.378831   -0.218297    1.328989
      5          6           0       -1.408581    1.012248   -0.760601
      6          6           0       -0.319942    1.994220   -0.719401
      7          1           0        1.026625    3.284453    0.287729
      8          1           0       -0.181843    2.379430    1.377899
      9          1           0       -2.024261    1.107397    1.248329
     10          1           0       -0.363477   -1.348400    2.042979
     11          1           0        1.776080    0.336464    2.176489
     12          8           0        1.256273   -0.971817   -0.853181
     13          6           0        0.241554   -1.556409   -0.131811
     14          6           0        2.005611   -0.166366   -0.021951
     15          8           0       -0.512775   -2.341690   -0.614321
     16          8           0        2.976860    0.406976   -0.398291
     17          6           0       -3.246008   -0.422615    0.186419
     18          1           0       -4.037179   -0.127306   -0.520821
     19          1           0       -2.828007   -1.377434   -0.171141
     20          1           0       -3.719848   -0.600806    1.160839
     21          1           0       -1.581860    0.540398   -1.734571
     22          1           0        0.124507    2.239021   -1.689651
 ---------------------------------------------------------------------

 SCF Done:  E(RwB97XD) =  -573.998631347     A.U. after   14 cycles

 The electronic state is 1-A.
 Alpha  occ. eigenvalues --  -19.33314 -19.28007 -19.27860 -10.46132 -10.46013
 Alpha  occ. eigenvalues --  -10.35481 -10.35402 -10.31562 -10.31365 -10.30625
 Alpha  occ. eigenvalues --  -10.30594 -10.29894  -1.25212  -1.17961  -1.14138
 Alpha  occ. eigenvalues --   -0.94334  -0.91226  -0.85508  -0.79637  -0.77621
 Alpha  occ. eigenvalues --   -0.73531  -0.69444  -0.68739  -0.62073  -0.60672
 Alpha  occ. eigenvalues --   -0.60452  -0.57624  -0.56917  -0.55626  -0.54403
 Alpha  occ. eigenvalues --   -0.53381  -0.51998  -0.50503  -0.49793  -0.49496
 Alpha  occ. eigenvalues --   -0.47774  -0.43648  -0.43487  -0.42989  -0.42038
 Alpha  occ. eigenvalues --   -0.41094  -0.39126  -0.38144  -0.31111
 Alpha virt. eigenvalues --   -0.03733   0.02282   0.10936   0.12123   0.13695
 Alpha virt. eigenvalues --    0.15356   0.15895   0.16192   0.17118   0.19449
 Alpha virt. eigenvalues --    0.21090   0.21496   0.22497   0.24150   0.25024

 Mulliken charges:
               1
     1  C   -0.133927
     2  C   -0.066406
     3  C   -0.077060
     4  C   -0.080353
     5  C   -0.054535
     6  C   -0.070349
     7  H    0.067891
     8  H    0.045241
     9  H    0.036120
    10  H    0.074559
    11  H    0.077011
    12  O   -0.288189
    13  C    0.294731
    14  C    0.293769
    15  O   -0.177959
    16  O   -0.170954
    17  C   -0.026393
    18  H    0.064833
    19  H    0.064906
    20  H    0.042642
    21  H    0.036619
    22  H    0.047802
 Sum of Mulliken charges =  -0.00000

 Dipole moment (field-independent basis, Debye):
    X=             -1.8589    Y=              1.0038    Z=              4.0813  Tot=              4.5957
 Quadrupole moment (field-independent basis, Debye-Ang):
   XX=            -75.5118   YY=            -75.0186   ZZ=            -64.6433
   XY=             -0.9644   XZ=              3.5240   YZ=             -3.3619

  Exact polarizability:     134.689      35.957     110.204      -0.679       3.698      99.535
 Approx polarizability:     132.077      41.237     110.957      -1.497       6.126     107.664

 ******    1 imaginary frequencies (negative Signs) ******

                      1                      2                      3
                      A                      A                      A
 Frequencies --   -179.4219                33.4038                69.5419
 Red. masses --      1.0988                 5.1197                 3.1449
 Frc consts  --      0.0208                 0.0034                 0.0090
 IR Inten    --      0.9370                 1.2691                 0.0890

                      4                      5                      6
                      A                      A                      A
 Frequencies --     89.4473                97.0769               106.1287
 Red. masses --      4.8652                 2.2286                 4.4685
 Frc consts  --      0.0229                 0.0124                 0.0297
 IR Inten    --      5.3299                 3.1011                 5.2268

                      7                      8                      9
                      A                      A                      A
 Frequencies --    118.0368               124.9103               186.3756
 Red. masses --      4.0361                 2.6601                14.4047
 Frc consts  --      0.0331                 0.0245                 0.2948
 IR Inten    --      6.3912                 1.9400                 7.4314

                     10                     11                     12
                      A                      A                      A
 Frequencies --    220.7149               264.9767               288.7580
 Red. masses --      2.8036                 2.1813                 4.0306
 Frc consts  --      0.0805                 0.0902                 0.1980
 IR Inten    --      0.0378                10.1934                 0.1727

                     13                     14                     15
                      A                      A                      A
 Frequencies --    387.4157               417.5881               582.2554
 Red. masses --      2.9002                12.7223                 4.5114
 Frc consts  --      0.2565                 1.3071                 0.9011
 IR Inten    --      1.3588                13.3167                 1.5420

                     16                     17                     18
                      A                      A                      A
 Frequencies --    602.3710               643.7366               651.1093
 Red. masses --      2.4873                 1.4578                 7.3091
 Frc consts  --      0.5317                 0.3559                 1.8257
 IR Inten    --      3.7560                 4.8297                 0.1969

                     19                     20                     21
                      A                      A                      A
 Frequencies --    661.8663               716.3133               773.7876
 Red. masses --      2.4421                 8.6937                 7.9416
 Frc consts  --      0.6303                 2.6282                 2.8016
 IR Inten    --     10.4909                33.2971                 0.1716

                     22                     23                     24
                      A                      A                      A
 Frequencies --    837.5799               858.3886               908.1154
 Red. masses --      1.5988                 2.0182                 9.1011
 Frc consts  --      0.6608                 0.8762                 4.4221
 IR Inten    --      6.4503               108.9434                 7.0315

                     25                     26                     27
                      A                      A                      A
 Frequencies --    934.4112               950.4999               965.6320
 Red. masses --      1.7977                 1.3727                 6.1875
 Frc consts  --      0.9248                 0.7307                 3.3993
 IR Inten    --      2.8804                51.7689               137.4832

                     28                     29                     30
                      A                      A                      A
 Frequencies --    993.4947              1011.6727              1017.2070
 Red. masses --      1.3001                 1.1248                 1.8077
 Frc consts  --      0.7561                 0.6783                 1.1020
 IR Inten    --      1.0195                58.2797                 4.6668

                     31                     32                     33
                      A                      A                      A
 Frequencies --   1044.2389              1055.0928              1064.1855
 Red. masses --      1.1512                 1.5182                 1.1184
 Frc consts  --      0.7396                 0.9958                 0.7463
 IR Inten    --     14.2005                 1.9940                19.1620

                     34                     35                     36
                      A                      A                      A
 Frequencies --   1079.3314              1092.6967              1140.5205
 Red. masses --      1.5177                 3.1473                 2.0483
 Frc consts  --      1.0417                 2.2140                 1.5698
 IR Inten    --      3.9147               107.7749                 2.7275

                     37                     38                     39
                      A                      A                      A
 Frequencies --   1304.3618              1316.0615              1320.3783
 Red. masses --      1.3240                 6.8476                 1.3144
 Frc consts  --      1.3272                 6.9879                 1.3501
 IR Inten    --      4.2000               176.5548                 8.2389

                     40                     41                     42
                      A                      A                      A
 Frequencies --   1337.6370              1356.8153              1398.0101
 Red. masses --      1.9908                 1.3151                 1.2674
 Frc consts  --      2.0987                 1.4264                 1.4594
 IR Inten    --      1.4241                 1.7160                 6.6749

                     43                     44                     45
                      A                      A                      A
 Frequencies --   1441.8005              1464.8071              1470.1302
 Red. masses --      1.2183                 1.0488                 1.0615
 Frc consts  --      1.4921                 1.3259                 1.3517
 IR Inten    --      5.4305                10.5299                11.6049

                     46                     47                     48
                      A                      A                      A
 Frequencies --   1694.3823              1712.1464              1739.1785
 Red. masses --      6.5876                 5.1433                 5.3233
 Frc consts  --     11.1430                 8.8833                 9.4868
 IR Inten    --     12.4449                16.9337                20.2934

                     49                     50                     51
                      A                      A                      A
 Frequencies --   1911.4512              1984.5429              3049.6277
 Red. masses --     12.8375                12.6707                 1.0386
 Frc consts  --     27.6348                29.4015                 5.6909
 IR Inten    --    851.4030               117.0340                20.2594

                     52                     53                     54
                      A                      A                      A
 Frequencies --   3134.9987              3160.3369              3163.8356
 Red. masses --      1.1026                 1.0960                 1.0625
 Frc consts  --      6.3848                 6.4496                 6.2664
 IR Inten    --      5.1545                10.0039                 3.5680

                     55                     56                     57
                      A                      A                      A
 Frequencies --   3168.3022              3174.1861              3189.2353
 Red. masses --      1.0934                 1.0928                 1.0946
 Frc consts  --      6.4665                 6.4873                 6.5594
 IR Inten    --      8.2428                21.1400                 7.8122

                     58                     59                     60
                      A                      A                      A
 Frequencies --   3268.3451              3272.8129              3293.7947
 Red. masses --      1.1169                 1.0913                 1.1136
 Frc consts  --      7.0295                 6.8874                 7.1184
 IR Inten    --      3.9272                 2.5437                 5.1299

 - Thermochemistry -
 -------------------
 Temperature   298.150 Kelvin.  Pressure   1.00000 Atm.
 Atom     1 has atomic number  6 and mass  12.00000

 Molecular mass:   166.06299 amu.
 Principal axes and moments of inertia in atomic units:
                           1         2         3
     Eigenvalues --  1495.507382138.781892942.07707
           X            0.99916   0.04087   0.00268
           Y           -0.04085   0.99915  -0.00591
           Z           -0.00292   0.00580   0.99998
 This molecule is an asymmetric top.
 Rotational symmetry number  1.
 Warning -- assumption of classical behavior for rotation
           may cause significant error
 Rotational temperatures (Kelvin)      0.05792     0.04050     0.02944
 Rotational constants (GHZ):           1.20678     0.84382     0.61342
    1 imaginary frequencies ignored.
 Zero-point vibrational energy     450490.1 (Joules/Mol)
                                  107.66971 (Kcal/Mol)
 Warning -- explicit consideration of  15 degrees of freedom as
           vibrations may cause significant error
 Vibrational temperatures:     48.06   100.06   128.69   139.67   152.70
          (Kelvin)            169.83   179.72   268.15   317.56   381.24
                              415.46   557.40   600.82   837.74   866.68
                              926.19   936.80   952.28  1030.62  1113.31
                             1205.09  1235.03  1306.58  1344.41  1367.56
                             1389.33  1429.42  1455.57  1463.53  1502.43
                             1518.04  1531.13  1552.92  1572.15  1640.95
                             1876.69  1893.52  1899.73  1924.56  1952.15
                             2011.42  2074.43  2107.53  2115.19  2437.84
                             2463.40  2502.29  2750.15  2855.31  4387.73
                             4510.56  4547.02  4552.05  4558.48  4566.95
                             4588.60  4702.42  4708.85  4739.04

 Zero-point correction=                           0.171583 (Hartree/Particle)
 Thermal correction to Energy=                    0.183906
 Thermal correction to Enthalpy=                  0.184850
 Thermal correction to Gibbs Free Energy=         0.131729
 Sum of electronic and zero-point Energies=           -573.827049
 Sum of electronic and thermal Energies=              -573.814726
 Sum of electronic and thermal Enthalpies=            -573.813781
 Sum of electronic and thermal Free Energies=         -573.866902

                     E (Thermal)             CV                S
                      KCal/Mol        Cal/Mol-Kelvin    Cal/Mol-Kelvin
 Total                  115.403             43.043            111.802
 Electronic               0.000              0.000              0.000
 Translational            0.889              2.981             41.230
 Rotational               0.889              2.981             30.621
 Vibrational            113.625             37.082             39.951
 Vibration     1          0.594              1.983              5.616
 Vibration     2          0.598              1.969              4.166
 Vibration     3          0.602              1.957              3.672
 Vibration     4          0.603              1.951              3.512
 Vibration     5          0.605              1.944              3.339
 Vibration     6          0.608              1.934              3.132
 Vibration     7          0.610              1.928              3.023
 Vibration     8          0.632              1.858              2.264
 Vibration     9          0.647              1.810              1.953
 Vibration    10          0.671              1.737              1.629
 Vibration    11          0.685              1.695              1.481
 Vibration    12          0.756              1.497              1.010
 Vibration    13          0.781              1.432              0.900
 Vibration    14          0.939              1.070              0.481
 Vibration    15          0.961              1.027              0.446

 Normal termination of Gaussian 16 at Sat Dec 30 20:54:37 2023.
