 Gaussian 16, Revision C.01,
 Gaussian 16:  ES64L-G16RevC.01  3-Jul-2019

 ----------------------------------------------------------------------
 # wb97xd chkbasis guess=read geom=allchk scrf=(iefpcm,solvent=toluene)
  opt=(readfc,ts,noeigen,maxcycles=50,maxstep=10)
 ----------------------------------------------------------------------

 Structure from the checkpoint file:  "da-2_1_opt_sqm.chk"
 -----------------------
 1d_2b_endo_2_reopt3.out
 -----------------------
 Charge =  0 Multiplicity = 1

 SCF Done:  E(RwB97XD) =  -573.999682015     A.U. after    1 cycles
 SCF Done:  E(RwB97XD) =  -573.999936202     A.U. after   12 cycles
 SCF Done:  E(RwB97XD) =  -573.999682354     A.U. after   12 cycles
 SCF Done:  E(RwB97XD) =  -573.999528832     A.U. after   12 cycles
 SCF Done:  E(RwB97XD) =  -573.999349973     A.U. after   12 cycles
 SCF Done:  E(RwB97XD) =  -573.998803021     A.U. after   12 cycles
 SCF Done:  E(RwB97XD) =  -573.998571878     A.U. after   13 cycles
 SCF Done:  E(RwB97XD) =  -573.998601483     A.U. after   12 cycles
 SCF Done:  E(RwB97XD) =  -573.998620527     A.U. after   12 cycles
 SCF Done:  E(RwB97XD) =  -573.998627475     A.U. after   12 cycles
 SCF Done:  E(RwB97XD) =  -573.998631149     A.U. after    9 cycles
 SCF Done:  E(RwB97XD) =  -573.998611633     A.U. after   12 cycles
 SCF Done:  E(RwB97XD) =  -573.998630291     A.U. after   12 cycles
 SCF Done:  E(RwB97XD) =  -573.998625457     A.U. after   12 cycles
 SCF Done:  E(RwB97XD) =  -573.998469087     A.U. after   13 cycles
 SCF Done:  E(RwB97XD) =  -573.998555278     A.U. after   12 cycles
 SCF Done:  E(RwB97XD) =  -573.998629471     A.U. after   12 cycles
 SCF Done:  E(RwB97XD) =  -573.998631143     A.U. after   10 cycles
 SCF Done:  E(RwB97XD) =  -573.998631298     A.U. after    9 cycles
 SCF Done:  E(RwB97XD) =  -573.998631351     A.U. after    7 cycles
 Optimization completed.
    -- Stationary point found.

                         Standard orientation:
 ---------------------------------------------------------------------
 Center     Atomic      Atomic             Coordinates (Angstroms)
 Number     Number       Type             X           Y           Z
 ---------------------------------------------------------------------
      1          6           0       -2.175257    0.626735    0.274465
      2          6           0        0.331655   -1.042857    1.263326
      3          6           0        0.199315    2.576087    0.371621
      4          6           0        1.378868   -0.218375    1.329132
      5          6           0       -1.408915    1.011921   -0.760530
      6          6           0       -0.320385    1.994028   -0.719587
      7          1           0        1.026155    3.284474    0.287380
      8          1           0       -0.182151    2.379273    1.377624
      9          1           0       -2.024671    1.107471    1.248361
     10          1           0       -0.363414   -1.348787    2.042659
     11          1           0        1.775992    0.336184    2.176820
     12          8           0        1.256656   -0.971446   -0.853208
     13          6           0        0.241916   -1.556291   -0.132092
     14          6           0        2.005797   -0.166069   -0.021726
     15          8           0       -0.512261   -2.341576   -0.614825
     16          8           0        2.976990    0.407505   -0.397836
     17          6           0       -3.246190   -0.422937    0.186772
     18          1           0       -4.037558   -0.127721   -0.520276
     19          1           0       -2.828162   -1.377691   -0.170891
     20          1           0       -3.719815   -0.601171    1.161313
     21          1           0       -1.582143    0.539810   -1.734400
     22          1           0        0.123863    2.238839   -1.689927
 ---------------------------------------------------------------------

 The electronic state is 1-A.
 Alpha  occ. eigenvalues --  -19.33314 -19.28007 -19.27860 -10.46132 -10.46013
 Alpha  occ. eigenvalues --  -10.35481 -10.35402 -10.31562 -10.31364 -10.30625
 Alpha  occ. eigenvalues --  -10.30593 -10.29895  -1.25212  -1.17961  -1.14138
 Alpha  occ. eigenvalues --   -0.94334  -0.91226  -0.85508  -0.79638  -0.77620
 Alpha  occ. eigenvalues --   -0.73531  -0.69444  -0.68740  -0.62073  -0.60672
 Alpha  occ. eigenvalues --   -0.60453  -0.57623  -0.56917  -0.55626  -0.54403
 Alpha  occ. eigenvalues --   -0.53381  -0.51997  -0.50503  -0.49794  -0.49496
 Alpha  occ. eigenvalues --   -0.47774  -0.43648  -0.43487  -0.42989  -0.42037
 Alpha  occ. eigenvalues --   -0.41094  -0.39126  -0.38144  -0.31111
 Alpha virt. eigenvalues --   -0.03733   0.02283   0.10936   0.12123   0.13696
 Alpha virt. eigenvalues --    0.15356   0.15896   0.16192   0.17118   0.19449
 Alpha virt. eigenvalues --    0.21090   0.21496   0.22498   0.24150   0.25022

 Mulliken charges:
               1
     1  C   -0.133940
     2  C   -0.066387
     3  C   -0.077066
     4  C   -0.080360
     5  C   -0.054538
     6  C   -0.070341
     7  H    0.067892
     8  H    0.045236
     9  H    0.036124
    10  H    0.074559
    11  H    0.077009
    12  O   -0.288184
    13  C    0.294727
    14  C    0.293769
    15  O   -0.177956
    16  O   -0.170942
    17  C   -0.026398
    18  H    0.064838
    19  H    0.064892
    20  H    0.042647
    21  H    0.036624
    22  H    0.047798
 Sum of Mulliken charges =  -0.00000

 Dipole moment (field-independent basis, Debye):
    X=             -1.8594    Y=              1.0025    Z=              4.0815  Tot=              4.5957
 Quadrupole moment (field-independent basis, Debye-Ang):
   XX=            -75.5113   YY=            -75.0174   ZZ=            -64.6438
   XY=             -0.9655   XZ=              3.5227   YZ=             -3.3631

 Normal termination of Gaussian 16 at Fri Dec 22 23:43:03 2023.
