 Gaussian 16, Revision C.01,
 Gaussian 16:  ES64L-G16RevC.01  3-Jul-2019

 ----------------------------------------------------------------------
 # wb97xd chkbasis guess=read geom=allchk scrf=(iefpcm,solvent=toluene)
  opt=(readfc,ts,noeigen,maxcycles=50,maxstep=10)
 ----------------------------------------------------------------------

 Structure from the checkpoint file:  "da-2_1_opt_dft.chk"
 -----------------------
 1d_2b_endo_2_reopt3.out
 -----------------------
 Charge =  0 Multiplicity = 1

 SCF Done:  E(RwB97XD) =  -573.998631054     A.U. after    1 cycles
 SCF Done:  E(RwB97XD) =  -573.998631327     A.U. after    9 cycles
 SCF Done:  E(RwB97XD) =  -573.998631348     A.U. after    7 cycles
 Optimization completed.
    -- Stationary point found.

                         Standard orientation:
 ---------------------------------------------------------------------
 Center     Atomic      Atomic             Coordinates (Angstroms)
 Number     Number       Type             X           Y           Z
 ---------------------------------------------------------------------
      1          6           0       -2.174937    0.626905    0.274331
      2          6           0        0.331532   -1.042709    1.263499
      3          6           0        0.199681    2.576195    0.371896
      4          6           0        1.378826   -0.218300    1.328994
      5          6           0       -1.408579    1.012248   -0.760598
      6          6           0       -0.319939    1.994222   -0.719402
      7          1           0        1.026634    3.284455    0.287734
      8          1           0       -0.181840    2.379432    1.377900
      9          1           0       -2.024255    1.107405    1.248327
     10          1           0       -0.363477   -1.348399    2.042984
     11          1           0        1.776079    0.336456    2.176489
     12          8           0        1.256269   -0.971817   -0.853180
     13          6           0        0.241548   -1.556411   -0.131812
     14          6           0        2.005613   -0.166366   -0.021954
     15          8           0       -0.512776   -2.341690   -0.614320
     16          8           0        2.976859    0.406971   -0.398292
     17          6           0       -3.246007   -0.422612    0.186418
     18          1           0       -4.037178   -0.127304   -0.520815
     19          1           0       -2.828005   -1.377426   -0.171136
     20          1           0       -3.719852   -0.600797    1.160845
     21          1           0       -1.581862    0.540397   -1.734575
     22          1           0        0.124505    2.239023   -1.689646
 ---------------------------------------------------------------------

 The electronic state is 1-A.
 Alpha  occ. eigenvalues --  -19.33314 -19.28007 -19.27860 -10.46132 -10.46013
 Alpha  occ. eigenvalues --  -10.35481 -10.35402 -10.31562 -10.31365 -10.30625
 Alpha  occ. eigenvalues --  -10.30594 -10.29894  -1.25212  -1.17961  -1.14138
 Alpha  occ. eigenvalues --   -0.94334  -0.91226  -0.85508  -0.79637  -0.77621
 Alpha  occ. eigenvalues --   -0.73531  -0.69444  -0.68739  -0.62073  -0.60672
 Alpha  occ. eigenvalues --   -0.60452  -0.57624  -0.56917  -0.55626  -0.54403
 Alpha  occ. eigenvalues --   -0.53381  -0.51998  -0.50503  -0.49793  -0.49496
 Alpha  occ. eigenvalues --   -0.47774  -0.43648  -0.43487  -0.42989  -0.42038
 Alpha  occ. eigenvalues --   -0.41094  -0.39126  -0.38144  -0.31111
 Alpha virt. eigenvalues --   -0.03733   0.02282   0.10936   0.12123   0.13695
 Alpha virt. eigenvalues --    0.15356   0.15895   0.16192   0.17118   0.19449
 Alpha virt. eigenvalues --    0.21090   0.21496   0.22497   0.24150   0.25024

 Mulliken charges:
               1
     1  C   -0.133927
     2  C   -0.066408
     3  C   -0.077063
     4  C   -0.080352
     5  C   -0.054541
     6  C   -0.070343
     7  H    0.067892
     8  H    0.045242
     9  H    0.036120
    10  H    0.074560
    11  H    0.077008
    12  O   -0.288193
    13  C    0.294730
    14  C    0.293767
    15  O   -0.177953
    16  O   -0.170948
    17  C   -0.026389
    18  H    0.064832
    19  H    0.064905
    20  H    0.042643
    21  H    0.036621
    22  H    0.047799
 Sum of Mulliken charges =  -0.00000

 Dipole moment (field-independent basis, Debye):
    X=             -1.8589    Y=              1.0038    Z=              4.0813  Tot=              4.5957
 Quadrupole moment (field-independent basis, Debye-Ang):
   XX=            -75.5116   YY=            -75.0185   ZZ=            -64.6434
   XY=             -0.9643   XZ=              3.5240   YZ=             -3.3618

 Normal termination of Gaussian 16 at Fri Dec 22 23:06:06 2023.
