 Gaussian 16, Revision C.01,
 Gaussian 16:  ES64L-G16RevC.01  3-Jul-2019

 -----------------------------------------------------------
 # wb97xd def2svp scrf=(iefpcm,solvent=toluene) freq=noraman
 -----------------------------------------------------------

 ---------------------
 da-2_1_opt_hf_re4.out
 ---------------------
 Symbolic Z-matrix:
 Charge =  0 Multiplicity = 1

                         Standard orientation:
 ---------------------------------------------------------------------
 Center     Atomic      Atomic             Coordinates (Angstroms)
 Number     Number       Type             X           Y           Z
 ---------------------------------------------------------------------
      1          6           0       -1.328708    1.205393   -0.480289
      2          6           0        1.075577   -1.618131   -0.488239
      3          6           0       -2.880563   -1.455284   -0.652819
      4          6           0        0.886847   -1.481501    0.823171
      5          6           0       -1.918659    0.539494    0.523791
      6          6           0       -2.451011   -0.830145    0.450001
      7          1           0       -3.242974   -2.485204   -0.613109
      8          1           0       -2.900252   -0.957894   -1.627289
      9          1           0       -1.197959    0.695673   -1.444419
     10          1           0        0.876016   -2.470851   -1.133929
     11          1           0        0.492866   -2.193210    1.545781
     12          8           0        1.752891    0.524007    0.063301
     13          6           0        1.614589   -0.328702   -1.006969
     14          6           0        1.304090   -0.101512    1.204921
     15          8           0        1.892730   -0.006983   -2.117839
     16          8           0        1.293851    0.435718    2.265161
     17          6           0       -0.808235    2.604202   -0.398669
     18          1           0       -1.312284    3.251203   -1.134939
     19          1           0       -0.957285    3.035002    0.601761
     20          1           0        0.267885    2.632200   -0.631509
     21          1           0       -2.002328    1.035024    1.498461
     22          1           0       -2.503022   -1.366765    1.404811
 ---------------------------------------------------------------------

 SCF Done:  E(RwB97XD) =  -573.998310378     A.U. after   14 cycles

 The electronic state is 1-A.
 Alpha  occ. eigenvalues --  -19.33744 -19.28564 -19.28492 -10.46509 -10.46481
 Alpha  occ. eigenvalues --  -10.35887 -10.35759 -10.31094 -10.30936 -10.30302
 Alpha  occ. eigenvalues --  -10.30100 -10.29424  -1.25748  -1.18535  -1.14704
 Alpha  occ. eigenvalues --   -0.94796  -0.90833  -0.85119  -0.80033  -0.77244
 Alpha  occ. eigenvalues --   -0.73976  -0.69254  -0.68762  -0.61986  -0.61023
 Alpha  occ. eigenvalues --   -0.60889  -0.57368  -0.57184  -0.56023  -0.53835
 Alpha  occ. eigenvalues --   -0.53757  -0.52072  -0.51174  -0.49743  -0.49329
 Alpha  occ. eigenvalues --   -0.47340  -0.43756  -0.43516  -0.42982  -0.41635
 Alpha  occ. eigenvalues --   -0.41376  -0.39057  -0.38628  -0.31099
 Alpha virt. eigenvalues --   -0.04484   0.03546   0.10694   0.12631   0.14184
 Alpha virt. eigenvalues --    0.15038   0.15558   0.16440   0.17334   0.19099
 Alpha virt. eigenvalues --    0.20614   0.21488   0.22501   0.23295   0.24987

 Mulliken charges:
               1
     1  C   -0.159295
     2  C   -0.059173
     3  C   -0.094864
     4  C   -0.051862
     5  C   -0.047737
     6  C   -0.064450
     7  H    0.056285
     8  H    0.052399
     9  H    0.038185
    10  H    0.080938
    11  H    0.080345
    12  O   -0.284911
    13  C    0.281004
    14  C    0.287435
    15  O   -0.170853
    16  O   -0.166611
    17  C   -0.005247
    18  H    0.055204
    19  H    0.043234
    20  H    0.058428
    21  H    0.034329
    22  H    0.037217
 Sum of Mulliken charges =  -0.00000

 Dipole moment (field-independent basis, Debye):
    X=             -1.4355    Y=             -3.5865    Z=              0.1386  Tot=              3.8656
 Quadrupole moment (field-independent basis, Debye-Ang):
   XX=            -75.6417   YY=            -62.0426   ZZ=            -77.0356
   XY=             -3.8483   XZ=              1.3907   YZ=             -2.1208

  Exact polarizability:      81.531      23.368     117.816      -6.876       3.763     131.496
 Approx polarizability:      79.338      18.999     108.580      -9.572       4.995     152.463

 ******    1 imaginary frequencies (negative Signs) ******

                      1                      2                      3
                      A                      A                      A
 Frequencies --    -23.6145                26.8307                45.3943
 Red. masses --      4.6430                 6.6846                 2.6153
 Frc consts  --      0.0015                 0.0028                 0.0032
 IR Inten    --      1.6005                 0.4034                 1.6367

                      4                      5                      6
                      A                      A                      A
 Frequencies --     56.4598                75.3424                93.9103
 Red. masses --      5.6800                 4.0084                 3.2360
 Frc consts  --      0.0107                 0.0134                 0.0168
 IR Inten    --      3.6159                 4.9319                 7.5412

                      7                      8                      9
                      A                      A                      A
 Frequencies --    121.3600               180.8451               190.8254
 Red. masses --      1.3143                 3.1840                 4.0020
 Frc consts  --      0.0114                 0.0614                 0.0859
 IR Inten    --      0.2234                 0.1485                 3.3656

                     10                     11                     12
                      A                      A                      A
 Frequencies --    220.9533               251.5569               260.1827
 Red. masses --      1.9834                 2.1414                 3.6312
 Frc consts  --      0.0571                 0.0798                 0.1448
 IR Inten    --      0.7242                 5.5307                 0.3449

                     13                     14                     15
                      A                      A                      A
 Frequencies --    392.9354               416.2106               577.5574
 Red. masses --      2.8021                12.7459                 4.5408
 Frc consts  --      0.2549                 1.3009                 0.8924
 IR Inten    --      1.9771                13.3958                 2.1204

                     16                     17                     18
                      A                      A                      A
 Frequencies --    586.4855               649.9240               654.4266
 Red. masses --      2.0197                 2.7046                 4.7365
 Frc consts  --      0.4093                 0.6731                 1.1952
 IR Inten    --      5.5380                 2.1929                 0.3216

                     19                     20                     21
                      A                      A                      A
 Frequencies --    660.0085               714.1839               773.3435
 Red. masses --      1.7841                 8.7169                 7.8030
 Frc consts  --      0.4579                 2.6196                 2.7495
 IR Inten    --      8.1589                34.3311                 0.5832

                     22                     23                     24
                      A                      A                      A
 Frequencies --    848.6411               863.0909               904.9491
 Red. masses --      1.5580                 2.0312                 9.0653
 Frc consts  --      0.6611                 0.8915                 4.3740
 IR Inten    --      5.4808               121.5751                 5.5685

                     25                     26                     27
                      A                      A                      A
 Frequencies --    909.8036               948.6585               966.9028
 Red. masses --      1.6607                 1.3557                 6.3297
 Frc consts  --      0.8099                 0.7188                 3.4866
 IR Inten    --      8.0810                45.0164               120.6096

                     28                     29                     30
                      A                      A                      A
 Frequencies --    996.4308              1006.4582              1016.8449
 Red. masses --      1.3039                 1.7366                 1.1571
 Frc consts  --      0.7627                 1.0364                 0.7049
 IR Inten    --      1.4805                10.5820                37.5468

                     31                     32                     33
                      A                      A                      A
 Frequencies --   1042.3521              1068.6613              1069.7080
 Red. masses --      1.1391                 1.1289                 1.5575
 Frc consts  --      0.7292                 0.7596                 1.0500
 IR Inten    --     18.2380                19.7864                 2.4425

                     34                     35                     36
                      A                      A                      A
 Frequencies --   1075.8080              1092.3764              1152.6328
 Red. masses --      1.4839                 3.3109                 2.1629
 Frc consts  --      1.0119                 2.3277                 1.6931
 IR Inten    --      0.9932               106.5283                 1.7461

                     37                     38                     39
                      A                      A                      A
 Frequencies --   1302.0497              1316.5882              1321.4631
 Red. masses --      1.2736                 7.7495                 1.2994
 Frc consts  --      1.2722                 7.9145                 1.3369
 IR Inten    --      0.9436               185.0650                 1.5137

                     40                     41                     42
                      A                      A                      A
 Frequencies --   1337.2593              1343.8325              1401.0265
 Red. masses --      1.9372                 1.3261                 1.3192
 Frc consts  --      2.0410                 1.4109                 1.5257
 IR Inten    --      2.6071                 0.1310                 0.4590

                     43                     44                     45
                      A                      A                      A
 Frequencies --   1435.5088              1453.7740              1462.9597
 Red. masses --      1.2105                 1.0452                 1.0704
 Frc consts  --      1.4697                 1.3015                 1.3498
 IR Inten    --      5.5527                12.2269                14.5968

                     46                     47                     48
                      A                      A                      A
 Frequencies --   1707.7607              1724.9930              1755.4499
 Red. masses --      6.8004                 5.0029                 5.9551
 Frc consts  --     11.6853                 8.7709                10.8122
 IR Inten    --      4.3895                10.2091                17.0922

                     49                     50                     51
                      A                      A                      A
 Frequencies --   1916.5927              1989.2805              3044.7969
 Red. masses --     12.8930                12.6914                 1.0377
 Frc consts  --     27.9038                29.5905                 5.6681
 IR Inten    --    804.9324                96.2799                24.2097

                     52                     53                     54
                      A                      A                      A
 Frequencies --   3130.3561              3147.2801              3156.0905
 Red. masses --      1.1018                 1.0932                 1.0670
 Frc consts  --      6.3614                 6.3801                 6.2620
 IR Inten    --      7.8877                 2.1119                 9.4307

                     55                     56                     57
                      A                      A                      A
 Frequencies --   3161.9799              3163.4379              3173.9345
 Red. masses --      1.0946                 1.0912                 1.0935
 Frc consts  --      6.4478                 6.4338                 6.4904
 IR Inten    --      3.7735                30.9355                 9.4802

                     58                     59                     60
                      A                      A                      A
 Frequencies --   3263.2151              3274.5326              3295.3207
 Red. masses --      1.1173                 1.0913                 1.1142
 Frc consts  --      7.0101                 6.8943                 7.1286
 IR Inten    --      6.4197                 2.6863                 5.3166

 - Thermochemistry -
 -------------------
 Temperature   298.150 Kelvin.  Pressure   1.00000 Atm.
 Atom     1 has atomic number  6 and mass  12.00000

 Molecular mass:   166.06299 amu.
 Principal axes and moments of inertia in atomic units:
                           1         2         3
     Eigenvalues --  1700.554162541.608092636.00369
           X            0.99993   0.00751   0.00906
           Y           -0.00667   0.99589  -0.09032
           Z           -0.00970   0.09025   0.99587
 This molecule is an asymmetric top.
 Rotational symmetry number  1.
 Warning -- assumption of classical behavior for rotation
           may cause significant error
 Rotational temperatures (Kelvin)      0.05093     0.03408     0.03286
 Rotational constants (GHZ):           1.06127     0.71008     0.68465
    1 imaginary frequencies ignored.
 Zero-point vibrational energy     449745.3 (Joules/Mol)
                                  107.49170 (Kcal/Mol)
 Warning -- explicit consideration of  15 degrees of freedom as
           vibrations may cause significant error
 Vibrational temperatures:     38.60    65.31    81.23   108.40   135.12
          (Kelvin)            174.61   260.20   274.56   317.90   361.93
                              374.34   565.35   598.83   830.98   843.82
                              935.10   941.57   949.61  1027.55  1112.67
                             1221.01  1241.80  1302.02  1309.00  1364.91
                             1391.16  1433.64  1448.07  1463.01  1499.71
                             1537.57  1539.07  1547.85  1571.69  1658.38
                             1873.36  1894.28  1901.29  1924.02  1933.48
                             2015.76  2065.38  2091.66  2104.87  2457.09
                             2481.88  2525.70  2757.55  2862.13  4380.78
                             4503.88  4528.23  4540.91  4549.38  4551.48
                             4566.58  4695.04  4711.32  4741.23

 Zero-point correction=                           0.171299 (Hartree/Particle)
 Thermal correction to Energy=                    0.183770
 Thermal correction to Enthalpy=                  0.184714
 Thermal correction to Gibbs Free Energy=         0.130364
 Sum of electronic and zero-point Energies=           -573.827011
 Sum of electronic and thermal Energies=              -573.814541
 Sum of electronic and thermal Enthalpies=            -573.813597
 Sum of electronic and thermal Free Energies=         -573.867946

                     E (Thermal)             CV                S
                      KCal/Mol        Cal/Mol-Kelvin    Cal/Mol-Kelvin
 Total                  115.317             43.124            114.388
 Electronic               0.000              0.000              0.000
 Translational            0.889              2.981             41.230
 Rotational               0.889              2.981             30.811
 Vibrational            113.540             37.163             42.347
 Vibration     1          0.593              1.984              6.051
 Vibration     2          0.595              1.979              5.009
 Vibration     3          0.596              1.975              4.577
 Vibration     4          0.599              1.965              4.009
 Vibration     5          0.603              1.954              3.577
 Vibration     6          0.609              1.931              3.079
 Vibration     7          0.630              1.866              2.320
 Vibration     8          0.634              1.853              2.220
 Vibration     9          0.648              1.809              1.951
 Vibration    10          0.664              1.760              1.720
 Vibration    11          0.668              1.746              1.661
 Vibration    12          0.760              1.485              0.989
 Vibration    13          0.779              1.435              0.905
 Vibration    14          0.934              1.080              0.490
 Vibration    15          0.944              1.061              0.473

 Normal termination of Gaussian 16 at Sat Dec 30 20:54:48 2023.
