 Gaussian 16, Revision C.01,
 Gaussian 16:  ES64L-G16RevC.01  3-Jul-2019

 -----------------------------------------------------------
 # wb97xd def2svp scrf=(iefpcm,solvent=toluene) freq=noraman
 -----------------------------------------------------------

 ------------------------
 da-2_1_opt_hf_reopt8.out
 ------------------------
 Symbolic Z-matrix:
 Charge =  0 Multiplicity = 1

                         Standard orientation:
 ---------------------------------------------------------------------
 Center     Atomic      Atomic             Coordinates (Angstroms)
 Number     Number       Type             X           Y           Z
 ---------------------------------------------------------------------
      1          6           0        2.664029    1.287062    0.005400
      2          6           0       -3.578360   -0.079493    0.025960
      3          6           0        4.500461   -1.204427    0.019030
      4          6           0       -3.112939   -1.328833    0.020450
      5          6           0        2.283540    0.001291   -0.008240
      6          6           0        3.161801   -1.180588   -0.000830
      7          1           0        5.044581   -2.151757    0.022810
      8          1           0        5.102840   -0.291007    0.032090
      9          1           0        3.734069    1.530542    0.024040
     10          1           0       -4.605881    0.278926    0.045730
     11          1           0       -3.655059   -2.272543    0.034410
     12          8           0       -1.271510    0.068869   -0.021610
     13          6           0       -2.407261    0.845578   -0.000430
     14          6           0       -1.622139   -1.261492   -0.010130
     15          8           0       -2.365872    2.033148   -0.004270
     16          8           0       -0.813739   -2.132731   -0.023490
     17          6           0        1.725408    2.452711   -0.002860
     18          1           0        1.904517    3.095991   -0.880410
     19          1           0        0.673908    2.132540   -0.018760
     20          1           0        1.879877    3.088641    0.884660
     21          1           0        1.211620   -0.217289   -0.026610
     22          1           0        2.631271   -2.139188   -0.013140
 ---------------------------------------------------------------------

 SCF Done:  E(RwB97XD) =  -573.993077894     A.U. after   14 cycles

 The electronic state is 1-A.
 Alpha  occ. eigenvalues --  -19.34497 -19.29310 -19.29286 -10.47188 -10.47165
 Alpha  occ. eigenvalues --  -10.36659 -10.36583 -10.29621 -10.29497 -10.28754
 Alpha  occ. eigenvalues --  -10.28702 -10.28570  -1.26527  -1.19286  -1.15452
 Alpha  occ. eigenvalues --   -0.95528  -0.89287  -0.83878  -0.80824  -0.76051
 Alpha  occ. eigenvalues --   -0.74701  -0.69965  -0.67646  -0.61728  -0.61561
 Alpha  occ. eigenvalues --   -0.60357  -0.58027  -0.56702  -0.55872  -0.54464
 Alpha  occ. eigenvalues --   -0.52783  -0.52673  -0.51744  -0.48912  -0.47986
 Alpha  occ. eigenvalues --   -0.46043  -0.44268  -0.43062  -0.41855  -0.41532
 Alpha  occ. eigenvalues --   -0.41064  -0.39327  -0.39309  -0.29365
 Alpha virt. eigenvalues --   -0.05096   0.04420   0.10048   0.12625   0.15059
 Alpha virt. eigenvalues --    0.16392   0.16980   0.17430   0.17468   0.18666
 Alpha virt. eigenvalues --    0.20466   0.22551   0.22747   0.24771   0.25484

 Mulliken charges:
               1
     1  C   -0.125030
     2  C   -0.067243
     3  C   -0.096197
     4  C   -0.042989
     5  C   -0.048059
     6  C   -0.050275
     7  H    0.052204
     8  H    0.042121
     9  H    0.023528
    10  H    0.089163
    11  H    0.089178
    12  O   -0.286103
    13  C    0.305663
    14  C    0.290401
    15  O   -0.168410
    16  O   -0.169764
    17  C   -0.015381
    18  H    0.047474
    19  H    0.041113
    20  H    0.047285
    21  H    0.009658
    22  H    0.031664
 Sum of Mulliken charges =  -0.00000

 Dipole moment (field-independent basis, Debye):
    X=             -5.1954    Y=             -1.1553    Z=              0.0868  Tot=              5.3231
 Quadrupole moment (field-independent basis, Debye-Ang):
   XX=            -50.6078   YY=            -74.0580   ZZ=            -71.6039
   XY=             10.2958   XZ=             -0.1300   YZ=             -0.0397

  Exact polarizability:     129.863     -21.806     156.073       0.052       0.133      56.562
 Approx polarizability:     118.574     -18.739     156.708       0.057       0.269      62.265

 ******    1 imaginary frequencies (negative Signs) ******

                      1                      2                      3
                      A                      A                      A
 Frequencies --    -85.7839                12.3331                30.9895
 Red. masses --      1.6438                 4.6106                 6.4141
 Frc consts  --      0.0071                 0.0004                 0.0036
 IR Inten    --      0.4217                 7.0706                 2.0128

                      4                      5                      6
                      A                      A                      A
 Frequencies --     31.5866                43.9016                64.4981
 Red. masses --      5.1323                 4.5206                 5.2042
 Frc consts  --      0.0030                 0.0051                 0.0128
 IR Inten    --      1.3032                 0.8027                 0.5928

                      7                      8                      9
                      A                      A                      A
 Frequencies --     68.7586               170.3358               202.2979
 Red. masses --      2.4249                15.5071                 1.3203
 Frc consts  --      0.0068                 0.2651                 0.0318
 IR Inten    --      0.4836                 3.8273                 2.6253

                     10                     11                     12
                      A                      A                      A
 Frequencies --    230.3772               246.4399               262.5694
 Red. masses --      2.8182                 1.6242                 3.9849
 Frc consts  --      0.0881                 0.0581                 0.1619
 IR Inten    --      0.0528                 2.0585                 0.0240

                     13                     14                     15
                      A                      A                      A
 Frequencies --    395.4067               418.1275               578.4348
 Red. masses --      2.8782                12.7721                 4.5391
 Frc consts  --      0.2651                 1.3156                 0.8948
 IR Inten    --      2.0748                19.5675                 2.3518

                     16                     17                     18
                      A                      A                      A
 Frequencies --    605.6816               642.4859               653.4647
 Red. masses --      2.5580                 1.3957                 2.3262
 Frc consts  --      0.5529                 0.3395                 0.5852
 IR Inten    --      8.3484                 3.8068                 0.5017

                     19                     20                     21
                      A                      A                      A
 Frequencies --    653.9575               715.1087               774.1081
 Red. masses --      9.6309                 8.7497                 8.0202
 Frc consts  --      2.4267                 2.6363                 2.8316
 IR Inten    --      0.7520                37.3603                 0.0023

                     22                     23                     24
                      A                      A                      A
 Frequencies --    850.4758               866.2712               903.8410
 Red. masses --      1.5583                 1.9968                 1.7931
 Frc consts  --      0.6641                 0.8829                 0.8630
 IR Inten    --      7.0580                86.9704                 4.7134

                     25                     26                     27
                      A                      A                      A
 Frequencies --    905.2425               940.1276               970.8969
 Red. masses --      6.8104                 1.3755                 6.1876
 Frc consts  --      3.2882                 0.7163                 3.4365
 IR Inten    --     10.4426                43.6293               125.7232

                     28                     29                     30
                      A                      A                      A
 Frequencies --   1002.1587              1011.3262              1031.8547
 Red. masses --      1.3003                 1.9559                 1.0910
 Frc consts  --      0.7694                 1.1786                 0.6844
 IR Inten    --      0.0002                10.6926                36.2487

                     31                     32                     33
                      A                      A                      A
 Frequencies --   1054.3672              1067.1085              1067.1455
 Red. masses --      1.1439                 1.1192                 1.6020
 Frc consts  --      0.7492                 0.7509                 1.0749
 IR Inten    --      9.5730                23.0664                 0.1564

                     34                     35                     36
                      A                      A                      A
 Frequencies --   1081.4231              1093.2520              1156.1160
 Red. masses --      1.5185                 3.2547                 2.1381
 Frc consts  --      1.0463                 2.2919                 1.6838
 IR Inten    --      5.6598               118.2669                 2.3395

                     37                     38                     39
                      A                      A                      A
 Frequencies --   1306.7044              1315.4066              1329.4508
 Red. masses --      1.2947                 7.7565                 1.2900
 Frc consts  --      1.3025                 7.9075                 1.3434
 IR Inten    --      3.7639               281.0233                 4.4565

                     40                     41                     42
                      A                      A                      A
 Frequencies --   1335.7697              1360.8855              1404.1971
 Red. masses --      1.9347                 1.2855                 1.3236
 Frc consts  --      2.0339                 1.4027                 1.5376
 IR Inten    --      2.9322                 3.7159                 0.7703

                     43                     44                     45
                      A                      A                      A
 Frequencies --   1445.1959              1464.8462              1466.1573
 Red. masses --      1.2046                 1.0438                 1.0677
 Frc consts  --      1.4823                 1.3197                 1.3523
 IR Inten    --      6.2068                 8.3266                19.2913

                     46                     47                     48
                      A                      A                      A
 Frequencies --   1702.9110              1726.0527              1758.7037
 Red. masses --      6.7813                 4.8272                 5.6682
 Frc consts  --     11.5863                 8.4733                10.3295
 IR Inten    --      4.1491                14.1871                12.2767

                     49                     50                     51
                      A                      A                      A
 Frequencies --   1918.4470              1989.9903              3038.8141
 Red. masses --     12.8830                12.6911                 1.0389
 Frc consts  --     27.9362                29.6108                 5.6523
 IR Inten    --    835.6769                97.2172                34.7805

                     52                     53                     54
                      A                      A                      A
 Frequencies --   3114.4756              3151.7909              3159.1737
 Red. masses --      1.1013                 1.0924                 1.0615
 Frc consts  --      6.2941                 6.3937                 6.2422
 IR Inten    --     16.6133                 5.3276                10.8590

                     55                     56                     57
                      A                      A                      A
 Frequencies --   3167.0726              3177.2150              3202.8297
 Red. masses --      1.1002                 1.0928                 1.0908
 Frc consts  --      6.5019                 6.4995                 6.5927
 IR Inten    --     22.6689                14.1516                 1.1467

                     58                     59                     60
                      A                      A                      A
 Frequencies --   3261.2066              3273.0538              3293.5837
 Red. masses --      1.1168                 1.0915                 1.1141
 Frc consts  --      6.9984                 6.8891                 7.1208
 IR Inten    --      9.3058                 3.2094                 6.6138

 - Thermochemistry -
 -------------------
 Temperature   298.150 Kelvin.  Pressure   1.00000 Atm.
 Atom     1 has atomic number  6 and mass  12.00000

 Molecular mass:   166.06299 amu.
 Principal axes and moments of inertia in atomic units:
                           1         2         3
     Eigenvalues --  1273.031354145.917145407.42768
           X            0.99995   0.00972  -0.00005
           Y           -0.00972   0.99995  -0.00024
           Z            0.00004   0.00024   1.00000
 This molecule is an asymmetric top.
 Rotational symmetry number  1.
 Warning -- assumption of classical behavior for rotation
           may cause significant error
 Rotational temperatures (Kelvin)      0.06804     0.02089     0.01602
 Rotational constants (GHZ):           1.41767     0.43531     0.33375
    1 imaginary frequencies ignored.
 Zero-point vibrational energy     449594.9 (Joules/Mol)
                                  107.45577 (Kcal/Mol)
 Warning -- explicit consideration of  15 degrees of freedom as
           vibrations may cause significant error
 Vibrational temperatures:     17.74    44.59    45.45    63.16    92.80
          (Kelvin)             98.93   245.08   291.06   331.46   354.57
                              377.78   568.90   601.59   832.24   871.44
                              924.39   940.19   940.90  1028.88  1113.77
                             1223.64  1246.37  1300.43  1302.44  1352.63
                             1396.90  1441.88  1455.07  1484.61  1517.00
                             1535.33  1535.38  1555.93  1572.95  1663.39
                             1880.06  1892.58  1912.78  1921.87  1958.01
                             2020.33  2079.31  2107.59  2109.47  2450.11
                             2483.40  2530.38  2760.22  2863.15  4372.18
                             4481.04  4534.72  4545.35  4556.71  4571.30
                             4608.16  4692.15  4709.19  4738.73

 Zero-point correction=                           0.171242 (Hartree/Particle)
 Thermal correction to Energy=                    0.184026
 Thermal correction to Enthalpy=                  0.184970
 Thermal correction to Gibbs Free Energy=         0.127211
 Sum of electronic and zero-point Energies=           -573.821836
 Sum of electronic and thermal Energies=              -573.809052
 Sum of electronic and thermal Enthalpies=            -573.808107
 Sum of electronic and thermal Free Energies=         -573.865867

                     E (Thermal)             CV                S
                      KCal/Mol        Cal/Mol-Kelvin    Cal/Mol-Kelvin
 Total                  115.478             43.113            121.565
 Electronic               0.000              0.000              0.000
 Translational            0.889              2.981             41.230
 Rotational               0.889              2.981             31.723
 Vibrational            113.701             37.151             48.612
 Vibration     1          0.593              1.987              7.594
 Vibration     2          0.594              1.984              5.765
 Vibration     3          0.594              1.983              5.727
 Vibration     4          0.595              1.980              5.075
 Vibration     5          0.597              1.971              4.315
 Vibration     6          0.598              1.969              4.189
 Vibration     7          0.625              1.879              2.432
 Vibration     8          0.639              1.837              2.112
 Vibration     9          0.652              1.795              1.876
 Vibration    10          0.661              1.769              1.756
 Vibration    11          0.670              1.741              1.645
 Vibration    12          0.762              1.480              0.980
 Vibration    13          0.781              1.431              0.898
 Vibration    14          0.935              1.078              0.488
 Vibration    15          0.964              1.020              0.440

 Normal termination of Gaussian 16 at Sat Dec 30 20:54:30 2023.
