 Gaussian 16, Revision C.01,
 Gaussian 16:  ES64L-G16RevC.01  3-Jul-2019

 ----------------------------------------------------------------------
 # wb97xd def2svp geom=allchk scrf=(iefpcm,solvent=toluene) opt=(readfc
 ,ts,noeigen,maxcycles=50,maxstep=10)
 ----------------------------------------------------------------------

 Structure from the checkpoint file:  "TS-249_sqm.chk"
 ----------
 TS-249.out
 ----------
 Charge =  0 Multiplicity = 1

 SCF Done:  E(RwB97XD) =  -287.436588189     A.U. after   15 cycles
 SCF Done:  E(RwB97XD) =  -287.441799676     A.U. after   12 cycles
 SCF Done:  E(RwB97XD) =  -287.444795867     A.U. after   13 cycles
 SCF Done:  E(RwB97XD) =  -287.446234291     A.U. after   12 cycles
 SCF Done:  E(RwB97XD) =  -287.446932671     A.U. after   12 cycles
 SCF Done:  E(RwB97XD) =  -287.447345973     A.U. after   12 cycles
 SCF Done:  E(RwB97XD) =  -287.446889268     A.U. after   13 cycles
 SCF Done:  E(RwB97XD) =  -287.446785528     A.U. after   13 cycles
 SCF Done:  E(RwB97XD) =  -287.447345355     A.U. after   12 cycles
 SCF Done:  E(RwB97XD) =  -287.447385459     A.U. after   12 cycles
 SCF Done:  E(RwB97XD) =  -287.447388404     A.U. after    8 cycles
 SCF Done:  E(RwB97XD) =  -287.447313562     A.U. after   12 cycles
 SCF Done:  E(RwB97XD) =  -287.447385996     A.U. after   11 cycles
 SCF Done:  E(RwB97XD) =  -287.447386932     A.U. after   11 cycles
 SCF Done:  E(RwB97XD) =  -287.447387154     A.U. after   11 cycles
 SCF Done:  E(RwB97XD) =  -287.447388452     A.U. after   10 cycles
 SCF Done:  E(RwB97XD) =  -287.447387910     A.U. after    9 cycles
 SCF Done:  E(RwB97XD) =  -287.447388258     A.U. after    8 cycles
 SCF Done:  E(RwB97XD) =  -287.447388500     A.U. after    9 cycles
 SCF Done:  E(RwB97XD) =  -287.447388354     A.U. after    8 cycles
 Optimization completed.
    -- Stationary point found.

                         Standard orientation:
 ---------------------------------------------------------------------
 Center     Atomic      Atomic             Coordinates (Angstroms)
 Number     Number       Type             X           Y           Z
 ---------------------------------------------------------------------
      1          6           0       -0.929593    0.659022   -0.270893
      2          6           0       -1.900146   -0.211552    0.290822
      3          8           0       -3.032548   -0.455811   -0.114509
      4          6           0        0.349266    0.781111    0.313228
      5          6           0        2.898573   -0.275595    0.140695
      6          1           0        2.875443   -0.455340    1.223396
      7          1           0        3.568697   -1.007270   -0.331287
      8          1           0        3.287900    0.735350   -0.037998
      9          7           0        1.536286   -0.359959   -0.384467
     10          1           0        1.117010   -1.280383   -0.236148
     11          1           0        1.497865   -0.191105   -1.391642
     12          1           0        0.924095    1.695893    0.119922
     13          1           0        0.443855    0.451757    1.358135
     14          1           0       -1.178431    1.210759   -1.182384
     15          1           0       -1.538657   -0.711375    1.242241
 ---------------------------------------------------------------------

 The electronic state is 1-A.
 Alpha  occ. eigenvalues --  -19.17620 -14.52852 -10.36182 -10.34791 -10.32766
 Alpha  occ. eigenvalues --  -10.24024  -1.05991  -1.05759  -0.85811  -0.80345
 Alpha  occ. eigenvalues --   -0.71849  -0.65968  -0.61492  -0.59116  -0.55761
 Alpha  occ. eigenvalues --   -0.51938  -0.51352  -0.50211  -0.47114  -0.44923
 Alpha  occ. eigenvalues --   -0.43415  -0.42065  -0.28243  -0.25329
 Alpha virt. eigenvalues --    0.09026   0.10806   0.14933   0.15224   0.17066
 Alpha virt. eigenvalues --    0.17790   0.19848   0.20263   0.22480   0.23416
 Alpha virt. eigenvalues --    0.25426   0.26244   0.34155   0.37048   0.44793

 Mulliken charges:
               1
     1  C   -0.282744
     2  C    0.145560
     3  O   -0.370256
     4  C    0.076277
     5  C    0.012150
     6  H    0.078073
     7  H    0.080528
     8  H    0.076964
     9  N   -0.203561
    10  H    0.173304
    11  H    0.177209
    12  H    0.050672
    13  H    0.051478
    14  H   -0.000978
    15  H   -0.064680
 Sum of Mulliken charges =  -0.00000

 Dipole moment (field-independent basis, Debye):
    X=             11.5313    Y=             -0.6970    Z=             -0.2752  Tot=             11.5557
 Quadrupole moment (field-independent basis, Debye-Ang):
   XX=            -48.5860   YY=            -36.6597   ZZ=            -35.2906
   XY=             -3.9230   XZ=             -2.7116   YZ=             -0.2826

 Normal termination of Gaussian 16 at Mon Dec 18 18:33:38 2023.
