 Gaussian 16, Revision C.01,
 Gaussian 16:  ES64L-G16RevC.01  3-Jul-2019

 ----------------------------------------------------------------------
 # wb97xd def2svp scrf=(iefpcm,solvent=toluene) opt=(calcfc,ts,noeigen,
 maxcycles=50,maxstep=10)
 ----------------------------------------------------------------------

 ----------
 TS-249.out
 ----------
 Symbolic Z-matrix:
 Charge =  0 Multiplicity = 1

 SCF Done:  E(RwB97XD) =  -287.436588189     A.U. after   15 cycles

  Exact polarizability:       0.000       0.000       0.000       0.000       0.000       0.000
 Approx polarizability:      93.437       6.702      52.147       7.159      -3.585      51.593

 SCF Done:  E(RwB97XD) =  -287.441362841     A.U. after   13 cycles
 SCF Done:  E(RwB97XD) =  -287.444577026     A.U. after   13 cycles
 SCF Done:  E(RwB97XD) =  -287.446218236     A.U. after   12 cycles
 SCF Done:  E(RwB97XD) =  -287.447134641     A.U. after   12 cycles
 SCF Done:  E(RwB97XD) =  -287.447374317     A.U. after   13 cycles
 SCF Done:  E(RwB97XD) =  -287.447377934     A.U. after   11 cycles
 SCF Done:  E(RwB97XD) =  -287.447263343     A.U. after   12 cycles
 SCF Done:  E(RwB97XD) =  -287.447186928     A.U. after   13 cycles
 SCF Done:  E(RwB97XD) =  -287.447385222     A.U. after   13 cycles
 SCF Done:  E(RwB97XD) =  -287.447376782     A.U. after   12 cycles
 SCF Done:  E(RwB97XD) =  -287.447386279     A.U. after   10 cycles
 SCF Done:  E(RwB97XD) =  -287.447388718     A.U. after    9 cycles
 SCF Done:  E(RwB97XD) =  -287.447388086     A.U. after    9 cycles
 SCF Done:  E(RwB97XD) =  -287.447388201     A.U. after    8 cycles
 SCF Done:  E(RwB97XD) =  -287.447388360     A.U. after    8 cycles
 Optimization completed.
    -- Stationary point found.

                         Standard orientation:
 ---------------------------------------------------------------------
 Center     Atomic      Atomic             Coordinates (Angstroms)
 Number     Number       Type             X           Y           Z
 ---------------------------------------------------------------------
      1          6           0       -0.929611    0.659087   -0.270853
      2          6           0       -1.900143   -0.211587    0.290820
      3          8           0       -3.032542   -0.455839   -0.114513
      4          6           0        0.349264    0.781148    0.313224
      5          6           0        2.898555   -0.275619    0.140720
      6          1           0        2.875360   -0.455334    1.223428
      7          1           0        3.568701   -1.007314   -0.331197
      8          1           0        3.287911    0.735315   -0.037978
      9          7           0        1.536302   -0.359964   -0.384517
     10          1           0        1.117019   -1.280370   -0.236231
     11          1           0        1.497941   -0.191085   -1.391693
     12          1           0        0.924112    1.695912    0.119903
     13          1           0        0.443910    0.451755    1.358112
     14          1           0       -1.178504    1.210895   -1.182281
     15          1           0       -1.538617   -0.711492    1.242184
 ---------------------------------------------------------------------

 The electronic state is 1-A.
 Alpha  occ. eigenvalues --  -19.17621 -14.52851 -10.36181 -10.34791 -10.32767
 Alpha  occ. eigenvalues --  -10.24025  -1.05991  -1.05759  -0.85810  -0.80345
 Alpha  occ. eigenvalues --   -0.71848  -0.65967  -0.61492  -0.59115  -0.55760
 Alpha  occ. eigenvalues --   -0.51938  -0.51352  -0.50211  -0.47113  -0.44924
 Alpha  occ. eigenvalues --   -0.43415  -0.42066  -0.28243  -0.25329
 Alpha virt. eigenvalues --    0.09025   0.10806   0.14934   0.15224   0.17066
 Alpha virt. eigenvalues --    0.17790   0.19848   0.20263   0.22480   0.23417
 Alpha virt. eigenvalues --    0.25426   0.26244   0.34154   0.37049   0.44793

 Mulliken charges:
               1
     1  C   -0.282731
     2  C    0.145560
     3  O   -0.370237
     4  C    0.076274
     5  C    0.012147
     6  H    0.078069
     7  H    0.080524
     8  H    0.076960
     9  N   -0.203569
    10  H    0.173293
    11  H    0.177206
    12  H    0.050674
    13  H    0.051475
    14  H   -0.000974
    15  H   -0.064670
 Sum of Mulliken charges =  -0.00000

 Dipole moment (field-independent basis, Debye):
    X=             11.5306    Y=             -0.6970    Z=             -0.2753  Tot=             11.5549
 Quadrupole moment (field-independent basis, Debye-Ang):
   XX=            -48.5855   YY=            -36.6598   ZZ=            -35.2906
   XY=             -3.9228   XZ=             -2.7116   YZ=             -0.2827

 Normal termination of Gaussian 16 at Mon Dec 18 20:29:52 2023.
