 Gaussian 16, Revision C.01,
 Gaussian 16:  ES64L-G16RevC.01  3-Jul-2019

 -----------------------------------------------------------
 # wb97xd def2svp scrf=(iefpcm,solvent=toluene) freq=noraman
 -----------------------------------------------------------

 ------------------
 TS-249_opt_sqm.out
 ------------------
 Symbolic Z-matrix:
 Charge =  0 Multiplicity = 1

                         Standard orientation:
 ---------------------------------------------------------------------
 Center     Atomic      Atomic             Coordinates (Angstroms)
 Number     Number       Type             X           Y           Z
 ---------------------------------------------------------------------
      1          6           0       -0.929590    0.659020   -0.270889
      2          6           0       -1.900150   -0.211550    0.290821
      3          8           0       -3.032550   -0.455810   -0.114509
      4          6           0        0.349270    0.781109    0.313231
      5          6           0        2.898570   -0.275592    0.140691
      6          1           0        2.875440   -0.455342    1.223401
      7          1           0        3.568700   -1.007272   -0.331289
      8          1           0        3.287900    0.735348   -0.037999
      9          7           0        1.536290   -0.359961   -0.384469
     10          1           0        1.117010   -1.280381   -0.236149
     11          1           0        1.497870   -0.191101   -1.391639
     12          1           0        0.924091    1.695889    0.119921
     13          1           0        0.443850    0.451759    1.358141
     14          1           0       -1.178430    1.210760   -1.182379
     15          1           0       -1.538660   -0.711370    1.242241
 ---------------------------------------------------------------------

 SCF Done:  E(RwB97XD) =  -287.447388354     A.U. after   14 cycles

 The electronic state is 1-A.
 Alpha  occ. eigenvalues --  -19.17620 -14.52852 -10.36182 -10.34791 -10.32766
 Alpha  occ. eigenvalues --  -10.24024  -1.05991  -1.05759  -0.85811  -0.80345
 Alpha  occ. eigenvalues --   -0.71849  -0.65968  -0.61492  -0.59116  -0.55761
 Alpha  occ. eigenvalues --   -0.51938  -0.51352  -0.50211  -0.47114  -0.44923
 Alpha  occ. eigenvalues --   -0.43415  -0.42065  -0.28243  -0.25329
 Alpha virt. eigenvalues --    0.09026   0.10806   0.14933   0.15224   0.17066
 Alpha virt. eigenvalues --    0.17790   0.19848   0.20263   0.22480   0.23416
 Alpha virt. eigenvalues --    0.25426   0.26244   0.34155   0.37048   0.44793

 Mulliken charges:
               1
     1  C   -0.282749
     2  C    0.145562
     3  O   -0.370253
     4  C    0.076280
     5  C    0.012145
     6  H    0.078075
     7  H    0.080529
     8  H    0.076964
     9  N   -0.203555
    10  H    0.173304
    11  H    0.177209
    12  H    0.050672
    13  H    0.051480
    14  H   -0.000978
    15  H   -0.064682
 Sum of Mulliken charges =  -0.00000

 Dipole moment (field-independent basis, Debye):
    X=             11.5313    Y=             -0.6970    Z=             -0.2752  Tot=             11.5556
 Quadrupole moment (field-independent basis, Debye-Ang):
   XX=            -48.5860   YY=            -36.6597   ZZ=            -35.2906
   XY=             -3.9230   XZ=             -2.7116   YZ=             -0.2826

  Exact polarizability:     107.195       5.009      52.966       2.210      -5.279      53.903
 Approx polarizability:      93.186       6.548      52.410       4.325      -3.790      52.736

 ******    1 imaginary frequencies (negative Signs) ******

                      1                      2                      3
                      A                      A                      A
 Frequencies --   -285.7051                52.8257                95.8337
 Red. masses --      6.2861                 2.4403                 3.3671
 Frc consts  --      0.3023                 0.0040                 0.0182
 IR Inten    --    614.3084                 6.6396                 5.1859

                      4                      5                      6
                      A                      A                      A
 Frequencies --    172.9757               221.4547               267.5489
 Red. masses --      1.1541                 2.5284                 2.2674
 Frc consts  --      0.0203                 0.0731                 0.0956
 IR Inten    --      1.5186                 8.1313                 0.1555

                      7                      8                      9
                      A                      A                      A
 Frequencies --    336.3764               458.2741               624.7655
 Red. masses --      2.3125                 4.6078                 3.2583
 Frc consts  --      0.1542                 0.5702                 0.7493
 IR Inten    --     10.6962               192.0636                10.4303

                     10                     11                     12
                      A                      A                      A
 Frequencies --    696.0379               751.4663               907.4714
 Red. masses --      1.1860                 1.2655                 1.4734
 Frc consts  --      0.3385                 0.4210                 0.7149
 IR Inten    --     32.7104               113.4160                 1.0301

                     13                     14                     15
                      A                      A                      A
 Frequencies --   1014.1837              1035.4214              1043.5981
 Red. masses --      1.1682                 1.5402                 1.4942
 Frc consts  --      0.7080                 0.9729                 0.9588
 IR Inten    --     13.6795                 3.5787                13.1920

                     16                     17                     18
                      A                      A                      A
 Frequencies --   1109.2021              1190.2551              1193.5987
 Red. masses --      2.5020                 1.4686                 1.4131
 Frc consts  --      1.8137                 1.2258                 1.1861
 IR Inten    --    120.0304               189.8853                15.3529

                     19                     20                     21
                      A                      A                      A
 Frequencies --   1242.4642              1252.8649              1279.5925
 Red. masses --      1.2806                 1.3761                 1.3619
 Frc consts  --      1.1648                 1.2726                 1.3138
 IR Inten    --     78.7578                13.3073               118.3793

                     22                     23                     24
                      A                      A                      A
 Frequencies --   1323.2511              1364.6922              1442.3568
 Red. masses --      1.3009                 1.3540                 1.3198
 Frc consts  --      1.3421                 1.4858                 1.6178
 IR Inten    --      1.2629                80.2768                 2.3207

                     25                     26                     27
                      A                      A                      A
 Frequencies --   1451.4225              1478.0993              1487.2239
 Red. masses --      1.1926                 1.0391                 1.0296
 Frc consts  --      1.4802                 1.3375                 1.3417
 IR Inten    --      1.4779                15.2756                18.4237

                     28                     29                     30
                      A                      A                      A
 Frequencies --   1521.3039              1628.5937              1779.3199
 Red. masses --      2.4795                 1.0922                 8.4421
 Frc consts  --      3.3809                 1.7067                15.7473
 IR Inten    --    100.0121                34.8399               877.7679

                     31                     32                     33
                      A                      A                      A
 Frequencies --   2748.3976              3070.9127              3089.2846
 Red. masses --      1.0768                 1.0344                 1.0604
 Frc consts  --      4.7922                 5.7472                 5.9624
 IR Inten    --    254.0452                24.8643                53.6748

                     34                     35                     36
                      A                      A                      A
 Frequencies --   3176.7095              3178.0494              3189.7164
 Red. masses --      1.1095                 1.1092                 1.1075
 Frc consts  --      6.5970                 6.6004                 6.6389
 IR Inten    --      5.3069                 9.1183                 4.1823

                     37                     38                     39
                      A                      A                      A
 Frequencies --   3193.1683              3513.7442              3594.2862
 Red. masses --      1.0951                 1.0540                 1.0968
 Frc consts  --      6.5789                 7.6673                 8.3483
 IR Inten    --     23.6840                25.3802                49.5090

 - Thermochemistry -
 -------------------
 Temperature   298.150 Kelvin.  Pressure   1.00000 Atm.
 Atom     1 has atomic number  6 and mass  12.00000

 Molecular mass:    87.06841 amu.
 Principal axes and moments of inertia in atomic units:
                           1         2         3
     Eigenvalues --   148.923881389.715831439.00942
           X            0.99997  -0.00765   0.00106
           Y            0.00771   0.99635  -0.08504
           Z           -0.00041   0.08505   0.99638
 This molecule is an asymmetric top.
 Rotational symmetry number  1.
 Rotational temperatures (Kelvin)      0.58160     0.06232     0.06019
 Rotational constants (GHZ):          12.11855     1.29864     1.25416
    1 imaginary frequencies ignored.
 Zero-point vibrational energy     341992.9 (Joules/Mol)
                                   81.73826 (Kcal/Mol)
 Warning -- explicit consideration of   7 degrees of freedom as
           vibrations may cause significant error
 Vibrational temperatures:     76.00   137.88   248.87   318.62   384.94
          (Kelvin)            483.97   659.35   898.90  1001.44  1081.19
                             1305.65  1459.18  1489.74  1501.50  1595.89
                             1712.51  1717.32  1787.63  1802.59  1841.05
                             1903.86  1963.49  2075.23  2088.27  2126.66
                             2139.78  2188.82  2343.18  2560.04  3954.33
                             4418.36  4444.79  4570.58  4572.50  4589.29
                             4594.26  5055.49  5171.38

 Zero-point correction=                           0.130258 (Hartree/Particle)
 Thermal correction to Energy=                    0.137545
 Thermal correction to Enthalpy=                  0.138489
 Thermal correction to Gibbs Free Energy=         0.098377
 Sum of electronic and zero-point Energies=           -287.317130
 Sum of electronic and thermal Energies=              -287.309844
 Sum of electronic and thermal Enthalpies=            -287.308900
 Sum of electronic and thermal Free Energies=         -287.349011

                     E (Thermal)             CV                S
                      KCal/Mol        Cal/Mol-Kelvin    Cal/Mol-Kelvin
 Total                   86.311             24.271             84.422
 Electronic               0.000              0.000              0.000
 Translational            0.889              2.981             39.305
 Rotational               0.889              2.981             27.190
 Vibrational             84.533             18.309             17.927
 Vibration     1          0.596              1.976              4.709
 Vibration     2          0.603              1.952              3.537
 Vibration     3          0.626              1.876              2.403
 Vibration     4          0.648              1.808              1.947
 Vibration     5          0.673              1.733              1.612
 Vibration     6          0.717              1.603              1.229
 Vibration     7          0.816              1.343              0.771

 1\1\GINC-NODE-001\Freq\RwB97XD\def2SVP\C4H9N1O1\JP2658\30-Dec-2023\0\\
 # wb97xd def2svp scrf=(iefpcm,solvent=toluene) freq=noraman\\TS-249_op
 t_sqm.out\\0,1\C,-0.92959,0.65902,-0.27089\C,-1.90015,-0.21155,0.29082
 \O,-3.03255,-0.45581,-0.11451\C,0.34927,0.78111,0.31323\C,2.89857,-0.2
 7559,0.14069\H,2.87544,-0.45534,1.2234\H,3.5687,-1.00727,-0.33129\H,3.
 2879,0.73535,-0.038\N,1.53629,-0.35996,-0.38447\H,1.11701,-1.28038,-0.
 23615\H,1.49787,-0.1911,-1.39164\H,0.92409,1.69589,0.11992\H,0.44385,0
 .45176,1.35814\H,-1.17843,1.21076,-1.18238\H,-1.53866,-0.71137,1.24224

 Normal termination of Gaussian 16 at Sat Dec 30 20:58:47 2023.
