 Gaussian 16, Revision C.01,
 Gaussian 16:  ES64L-G16RevC.01  3-Jul-2019

 -----------------------------------------------------------
 # wb97xd def2svp scrf=(iefpcm,solvent=toluene) freq=noraman
 -----------------------------------------------------------

 ------------------
 TS-249_opt_dft.out
 ------------------
 Symbolic Z-matrix:
 Charge =  0 Multiplicity = 1

                         Standard orientation:
 ---------------------------------------------------------------------
 Center     Atomic      Atomic             Coordinates (Angstroms)
 Number     Number       Type             X           Y           Z
 ---------------------------------------------------------------------
      1          6           0       -0.929609    0.659090   -0.270850
      2          6           0       -1.900139   -0.211590    0.290820
      3          8           0       -3.032540   -0.455840   -0.114510
      4          6           0        0.349261    0.781149    0.313220
      5          6           0        2.898551   -0.275622    0.140720
      6          1           0        2.875360   -0.455332    1.223430
      7          1           0        3.568700   -1.007312   -0.331200
      8          1           0        3.287911    0.735318   -0.037980
      9          7           0        1.536300   -0.359961   -0.384520
     10          1           0        1.117020   -1.280371   -0.236230
     11          1           0        1.497941   -0.191091   -1.391690
     12          1           0        0.924111    1.695909    0.119900
     13          1           0        0.443911    0.451759    1.358110
     14          1           0       -1.178499    1.210900   -1.182280
     15          1           0       -1.538620   -0.711490    1.242180
 ---------------------------------------------------------------------

 SCF Done:  E(RwB97XD) =  -287.447388360     A.U. after   14 cycles

 The electronic state is 1-A.
 Alpha  occ. eigenvalues --  -19.17621 -14.52851 -10.36181 -10.34791 -10.32767
 Alpha  occ. eigenvalues --  -10.24025  -1.05991  -1.05759  -0.85810  -0.80345
 Alpha  occ. eigenvalues --   -0.71848  -0.65967  -0.61493  -0.59115  -0.55760
 Alpha  occ. eigenvalues --   -0.51938  -0.51352  -0.50211  -0.47113  -0.44924
 Alpha  occ. eigenvalues --   -0.43415  -0.42066  -0.28244  -0.25329
 Alpha virt. eigenvalues --    0.09025   0.10806   0.14934   0.15224   0.17066
 Alpha virt. eigenvalues --    0.17790   0.19848   0.20263   0.22480   0.23417
 Alpha virt. eigenvalues --    0.25426   0.26244   0.34154   0.37049   0.44793

 Mulliken charges:
               1
     1  C   -0.282731
     2  C    0.145562
     3  O   -0.370237
     4  C    0.076276
     5  C    0.012142
     6  H    0.078070
     7  H    0.080524
     8  H    0.076961
     9  N   -0.203564
    10  H    0.173293
    11  H    0.177202
    12  H    0.050672
    13  H    0.051473
    14  H   -0.000974
    15  H   -0.064668
 Sum of Mulliken charges =  -0.00000

 Dipole moment (field-independent basis, Debye):
    X=             11.5305    Y=             -0.6970    Z=             -0.2753  Tot=             11.5548
 Quadrupole moment (field-independent basis, Debye-Ang):
   XX=            -48.5855   YY=            -36.6598   ZZ=            -35.2905
   XY=             -3.9228   XZ=             -2.7116   YZ=             -0.2827

  Exact polarizability:     107.198       5.009      52.968       2.210      -5.279      53.901
 Approx polarizability:      93.188       6.547      52.411       4.325      -3.790      52.735

 ******    1 imaginary frequencies (negative Signs) ******

                      1                      2                      3
                      A                      A                      A
 Frequencies --   -285.7331                52.8274                95.8407
 Red. masses --      6.2858                 2.4410                 3.3659
 Frc consts  --      0.3024                 0.0040                 0.0182
 IR Inten    --    614.3932                 6.6392                 5.1905

                      4                      5                      6
                      A                      A                      A
 Frequencies --    172.9882               221.4505               267.5396
 Red. masses --      1.1540                 2.5289                 2.2670
 Frc consts  --      0.0203                 0.0731                 0.0956
 IR Inten    --      1.5178                 8.1300                 0.1563

                      7                      8                      9
                      A                      A                      A
 Frequencies --    336.3485               458.2617               624.7519
 Red. masses --      2.3126                 4.6074                 3.2583
 Frc consts  --      0.1541                 0.5701                 0.7493
 IR Inten    --     10.6944               192.0313                10.4278

                     10                     11                     12
                      A                      A                      A
 Frequencies --    695.9780               751.4497               907.4557
 Red. masses --      1.1860                 1.2656                 1.4734
 Frc consts  --      0.3385                 0.4210                 0.7149
 IR Inten    --     32.6970               113.4241                 1.0296

                     13                     14                     15
                      A                      A                      A
 Frequencies --   1014.1650              1035.4081              1043.5828
 Red. masses --      1.1682                 1.5403                 1.4938
 Frc consts  --      0.7079                 0.9729                 0.9585
 IR Inten    --     13.6799                 3.5857                13.1792

                     16                     17                     18
                      A                      A                      A
 Frequencies --   1109.1811              1190.2174              1193.5782
 Red. masses --      2.5033                 1.4702                 1.4115
 Frc consts  --      1.8145                 1.2271                 1.1848
 IR Inten    --    120.1024               189.9652                15.2815

                     19                     20                     21
                      A                      A                      A
 Frequencies --   1242.4333              1252.8830              1279.5737
 Red. masses --      1.2809                 1.3758                 1.3619
 Frc consts  --      1.1649                 1.2724                 1.3138
 IR Inten    --     78.7936                13.2346               118.3683

                     22                     23                     24
                      A                      A                      A
 Frequencies --   1323.2427              1364.6713              1442.3522
 Red. masses --      1.3010                 1.3541                 1.3198
 Frc consts  --      1.3421                 1.4858                 1.6178
 IR Inten    --      1.2646                80.3147                 2.3156

                     25                     26                     27
                      A                      A                      A
 Frequencies --   1451.4252              1478.1059              1487.2262
 Red. masses --      1.1926                 1.0391                 1.0296
 Frc consts  --      1.4802                 1.3375                 1.3417
 IR Inten    --      1.4804                15.2730                18.4193

                     28                     29                     30
                      A                      A                      A
 Frequencies --   1521.3071              1628.5913              1779.3004
 Red. masses --      2.4791                 1.0922                 8.4428
 Frc consts  --      3.3805                 1.7067                15.7483
 IR Inten    --    100.0835                34.8345               877.6695

                     31                     32                     33
                      A                      A                      A
 Frequencies --   2748.4491              3070.9142              3089.2873
 Red. masses --      1.0768                 1.0344                 1.0604
 Frc consts  --      4.7924                 5.7472                 5.9624
 IR Inten    --    254.0066                24.8645                53.6826

                     34                     35                     36
                      A                      A                      A
 Frequencies --   3176.7093              3178.0543              3189.7019
 Red. masses --      1.1095                 1.1092                 1.1075
 Frc consts  --      6.5970                 6.6005                 6.6389
 IR Inten    --      5.2928                 9.1472                 4.1977

                     37                     38                     39
                      A                      A                      A
 Frequencies --   3193.1911              3513.8246              3594.3660
 Red. masses --      1.0951                 1.0540                 1.0968
 Frc consts  --      6.5789                 7.6677                 8.3487
 IR Inten    --     23.6530                25.3849                49.4964

 - Thermochemistry -
 -------------------
 Temperature   298.150 Kelvin.  Pressure   1.00000 Atm.
 Atom     1 has atomic number  6 and mass  12.00000

 Molecular mass:    87.06841 amu.
 Principal axes and moments of inertia in atomic units:
                           1         2         3
     Eigenvalues --   148.935631389.708551439.01359
           X            0.99997  -0.00765   0.00106
           Y            0.00771   0.99635  -0.08502
           Z           -0.00041   0.08503   0.99638
 This molecule is an asymmetric top.
 Rotational symmetry number  1.
 Rotational temperatures (Kelvin)      0.58155     0.06233     0.06019
 Rotational constants (GHZ):          12.11759     1.29865     1.25415
    1 imaginary frequencies ignored.
 Zero-point vibrational energy     341992.2 (Joules/Mol)
                                   81.73810 (Kcal/Mol)
 Warning -- explicit consideration of   7 degrees of freedom as
           vibrations may cause significant error
 Vibrational temperatures:     76.01   137.89   248.89   318.62   384.93
          (Kelvin)            483.93   659.34   898.88  1001.36  1081.17
                             1305.63  1459.16  1489.72  1501.48  1595.86
                             1712.46  1717.29  1787.58  1802.62  1841.02
                             1903.85  1963.46  2075.22  2088.28  2126.66
                             2139.79  2188.82  2343.18  2560.02  3954.41
                             4418.36  4444.80  4570.58  4572.51  4589.27
                             4594.29  5055.61  5171.49

 Zero-point correction=                           0.130258 (Hartree/Particle)
 Thermal correction to Energy=                    0.137544
 Thermal correction to Enthalpy=                  0.138489
 Thermal correction to Gibbs Free Energy=         0.098377
 Sum of electronic and zero-point Energies=           -287.317130
 Sum of electronic and thermal Energies=              -287.309844
 Sum of electronic and thermal Enthalpies=            -287.308900
 Sum of electronic and thermal Free Energies=         -287.349012

                     E (Thermal)             CV                S
                      KCal/Mol        Cal/Mol-Kelvin    Cal/Mol-Kelvin
 Total                   86.310             24.271             84.423
 Electronic               0.000              0.000              0.000
 Translational            0.889              2.981             39.305
 Rotational               0.889              2.981             27.190
 Vibrational             84.533             18.309             17.927
 Vibration     1          0.596              1.976              4.709
 Vibration     2          0.603              1.952              3.537
 Vibration     3          0.626              1.876              2.403
 Vibration     4          0.648              1.808              1.947
 Vibration     5          0.673              1.733              1.612
 Vibration     6          0.717              1.603              1.229
 Vibration     7          0.816              1.343              0.771

 1\1\GINC-NODE-001\Freq\RwB97XD\def2SVP\C4H9N1O1\JP2658\30-Dec-2023\0\\
 # wb97xd def2svp scrf=(iefpcm,solvent=toluene) freq=noraman\\TS-249_op
 t_dft.out\\0,1\C,-0.92961,0.65909,-0.27085\C,-1.90014,-0.21159,0.29082
 \O,-3.03254,-0.45584,-0.11451\C,0.34926,0.78115,0.31322\C,2.89855,-0.2
 7562,0.14072\H,2.87536,-0.45533,1.22343\H,3.5687,-1.00731,-0.3312\H,3.
 28791,0.73532,-0.03798\N,1.5363,-0.35996,-0.38452\H,1.11702,-1.28037,-
 0.23623\H,1.49794,-0.19109,-1.39169\H,0.92411,1.69591,0.1199\H,0.44391
 ,0.45176,1.35811\H,-1.1785,1.2109,-1.18228\H,-1.53862,-0.71149,1.24218

 Normal termination of Gaussian 16 at Sat Dec 30 20:58:14 2023.
