 Gaussian 16, Revision C.01,
 Gaussian 16:  ES64L-G16RevC.01  3-Jul-2019

 -----------------------------------------------------------
 # wb97xd def2svp scrf=(iefpcm,solvent=toluene) freq=noraman
 -----------------------------------------------------------

 -----------------
 TS-249_opt_hf.out
 -----------------
 Symbolic Z-matrix:
 Charge =  0 Multiplicity = 1

                         Standard orientation:
 ---------------------------------------------------------------------
 Center     Atomic      Atomic             Coordinates (Angstroms)
 Number     Number       Type             X           Y           Z
 ---------------------------------------------------------------------
      1          6           0       -0.929608    0.659192   -0.270738
      2          6           0       -1.900058   -0.211668    0.290773
      3          8           0       -3.032488   -0.455858   -0.114518
      4          6           0        0.349322    0.781122    0.313293
      5          6           0        2.898442   -0.275739    0.140763
      6          1           0        2.875072   -0.455639    1.223432
      7          1           0        3.568542   -1.007449   -0.331188
      8          1           0        3.287962    0.735171   -0.037708
      9          7           0        1.536252   -0.359809   -0.384678
     10          1           0        1.116822   -1.280189   -0.236598
     11          1           0        1.497992   -0.190729   -1.391827
     12          1           0        0.924123    1.695951    0.120133
     13          1           0        0.444002    0.451562    1.358132
     14          1           0       -1.178557    1.211222   -1.182007
     15          1           0       -1.538418   -0.711818    1.241973
 ---------------------------------------------------------------------

 SCF Done:  E(RwB97XD) =  -287.447388393     A.U. after   14 cycles

 The electronic state is 1-A.
 Alpha  occ. eigenvalues --  -19.17620 -14.52853 -10.36182 -10.34791 -10.32766
 Alpha  occ. eigenvalues --  -10.24024  -1.05991  -1.05760  -0.85810  -0.80346
 Alpha  occ. eigenvalues --   -0.71849  -0.65969  -0.61492  -0.59116  -0.55761
 Alpha  occ. eigenvalues --   -0.51938  -0.51351  -0.50212  -0.47114  -0.44923
 Alpha  occ. eigenvalues --   -0.43415  -0.42065  -0.28243  -0.25328
 Alpha virt. eigenvalues --    0.09026   0.10806   0.14933   0.15224   0.17066
 Alpha virt. eigenvalues --    0.17790   0.19848   0.20263   0.22480   0.23416
 Alpha virt. eigenvalues --    0.25427   0.26243   0.34155   0.37049   0.44793

 Mulliken charges:
               1
     1  C   -0.282747
     2  C    0.145556
     3  O   -0.370253
     4  C    0.076254
     5  C    0.012154
     6  H    0.078074
     7  H    0.080530
     8  H    0.076967
     9  N   -0.203543
    10  H    0.173302
    11  H    0.177217
    12  H    0.050677
    13  H    0.051477
    14  H   -0.000981
    15  H   -0.064684
 Sum of Mulliken charges =  -0.00000

 Dipole moment (field-independent basis, Debye):
    X=             11.5315    Y=             -0.6969    Z=             -0.2759  Tot=             11.5558
 Quadrupole moment (field-independent basis, Debye-Ang):
   XX=            -48.5855   YY=            -36.6602   ZZ=            -35.2905
   XY=             -3.9226   XZ=             -2.7118   YZ=             -0.2828

  Exact polarizability:     107.191       5.009      52.972       2.210      -5.280      53.898
 Approx polarizability:      93.184       6.547      52.414       4.325      -3.791      52.733

 ******    1 imaginary frequencies (negative Signs) ******

                      1                      2                      3
                      A                      A                      A
 Frequencies --   -285.6837                52.9682                95.8723
 Red. masses --      6.2858                 2.4452                 3.3542
 Frc consts  --      0.3023                 0.0040                 0.0182
 IR Inten    --    614.2613                 6.6342                 5.1908

                      4                      5                      6
                      A                      A                      A
 Frequencies --    172.9388               221.4310               267.5503
 Red. masses --      1.1542                 2.5301                 2.2670
 Frc consts  --      0.0203                 0.0731                 0.0956
 IR Inten    --      1.5218                 8.1338                 0.1571

                      7                      8                      9
                      A                      A                      A
 Frequencies --    336.3479               458.2860               624.7647
 Red. masses --      2.3126                 4.6076                 3.2583
 Frc consts  --      0.1541                 0.5702                 0.7493
 IR Inten    --     10.6946               192.0300                10.4223

                     10                     11                     12
                      A                      A                      A
 Frequencies --    696.0680               751.3861               907.4656
 Red. masses --      1.1860                 1.2654                 1.4734
 Frc consts  --      0.3386                 0.4209                 0.7149
 IR Inten    --     32.7901               113.3579                 1.0309

                     13                     14                     15
                      A                      A                      A
 Frequencies --   1014.2002              1035.4257              1043.5878
 Red. masses --      1.1682                 1.5401                 1.4942
 Frc consts  --      0.7080                 0.9728                 0.9587
 IR Inten    --     13.6741                 3.5814                13.1917

                     16                     17                     18
                      A                      A                      A
 Frequencies --   1109.2072              1190.1979              1193.6034
 Red. masses --      2.5023                 1.4689                 1.4133
 Frc consts  --      1.8139                 1.2260                 1.1863
 IR Inten    --    119.9960               189.8383                15.3461

                     19                     20                     21
                      A                      A                      A
 Frequencies --   1242.4754              1252.8970              1279.6015
 Red. masses --      1.2810                 1.3758                 1.3614
 Frc consts  --      1.1651                 1.2724                 1.3133
 IR Inten    --     78.8803                13.2653               118.3774

                     22                     23                     24
                      A                      A                      A
 Frequencies --   1323.2552              1364.6640              1442.3501
 Red. masses --      1.3009                 1.3542                 1.3199
 Frc consts  --      1.3421                 1.4859                 1.6178
 IR Inten    --      1.2664                80.3244                 2.3144

                     25                     26                     27
                      A                      A                      A
 Frequencies --   1451.4279              1478.1144              1487.2215
 Red. masses --      1.1925                 1.0391                 1.0296
 Frc consts  --      1.4801                 1.3376                 1.3417
 IR Inten    --      1.4730                15.2822                18.4223

                     28                     29                     30
                      A                      A                      A
 Frequencies --   1521.2614              1628.6262              1779.2971
 Red. masses --      2.4786                 1.0922                 8.4424
 Frc consts  --      3.3796                 1.7068                15.7475
 IR Inten    --     99.9909                34.8376               877.6768

                     31                     32                     33
                      A                      A                      A
 Frequencies --   2748.3159              3070.9652              3089.2309
 Red. masses --      1.0768                 1.0344                 1.0604
 Frc consts  --      4.7919                 5.7474                 5.9622
 IR Inten    --    254.0444                24.8248                53.7053

                     34                     35                     36
                      A                      A                      A
 Frequencies --   3176.7203              3178.0723              3189.7622
 Red. masses --      1.1096                 1.1091                 1.1075
 Frc consts  --      6.5977                 6.6003                 6.6391
 IR Inten    --      5.4088                 9.0746                 4.1925

                     37                     38                     39
                      A                      A                      A
 Frequencies --   3193.2455              3513.7470              3594.2817
 Red. masses --      1.0951                 1.0540                 1.0968
 Frc consts  --      6.5789                 7.6673                 8.3483
 IR Inten    --     23.6101                25.3935                49.5049

 - Thermochemistry -
 -------------------
 Temperature   298.150 Kelvin.  Pressure   1.00000 Atm.
 Atom     1 has atomic number  6 and mass  12.00000

 Molecular mass:    87.06841 amu.
 Principal axes and moments of inertia in atomic units:
                           1         2         3
     Eigenvalues --   148.945551389.636611438.94596
           X            0.99997  -0.00765   0.00106
           Y            0.00772   0.99635  -0.08504
           Z           -0.00041   0.08504   0.99638
 This molecule is an asymmetric top.
 Rotational symmetry number  1.
 Rotational temperatures (Kelvin)      0.58151     0.06233     0.06019
 Rotational constants (GHZ):          12.11678     1.29871     1.25421
    1 imaginary frequencies ignored.
 Zero-point vibrational energy     341993.4 (Joules/Mol)
                                   81.73839 (Kcal/Mol)
 Warning -- explicit consideration of   7 degrees of freedom as
           vibrations may cause significant error
 Vibrational temperatures:     76.21   137.94   248.82   318.59   384.95
          (Kelvin)            483.93   659.37   898.90  1001.49  1081.08
                             1305.64  1459.21  1489.75  1501.49  1595.90
                             1712.43  1717.33  1787.64  1802.64  1841.06
                             1903.87  1963.45  2075.22  2088.28  2126.68
                             2139.78  2188.76  2343.23  2560.01  3954.21
                             4418.43  4444.71  4570.59  4572.54  4589.36
                             4594.37  5055.50  5171.37

 Zero-point correction=                           0.130258 (Hartree/Particle)
 Thermal correction to Energy=                    0.137545
 Thermal correction to Enthalpy=                  0.138489
 Thermal correction to Gibbs Free Energy=         0.098379
 Sum of electronic and zero-point Energies=           -287.317130
 Sum of electronic and thermal Energies=              -287.309844
 Sum of electronic and thermal Enthalpies=            -287.308900
 Sum of electronic and thermal Free Energies=         -287.349009

                     E (Thermal)             CV                S
                      KCal/Mol        Cal/Mol-Kelvin    Cal/Mol-Kelvin
 Total                   86.311             24.271             84.417
 Electronic               0.000              0.000              0.000
 Translational            0.889              2.981             39.305
 Rotational               0.889              2.981             27.190
 Vibrational             84.533             18.309             17.922
 Vibration     1          0.596              1.976              4.703
 Vibration     2          0.603              1.952              3.537
 Vibration     3          0.626              1.876              2.403
 Vibration     4          0.648              1.808              1.947
 Vibration     5          0.673              1.733              1.612
 Vibration     6          0.717              1.603              1.229
 Vibration     7          0.816              1.343              0.771

 1\1\GINC-NODE-001\Freq\RwB97XD\def2SVP\C4H9N1O1\JP2658\30-Dec-2023\0\\
 # wb97xd def2svp scrf=(iefpcm,solvent=toluene) freq=noraman\\TS-249_op
 t_hf.out\\0,1\C,-0.92961,0.65919,-0.27074\C,-1.90006,-0.21167,0.29077\
 O,-3.03249,-0.45586,-0.11452\C,0.34932,0.78112,0.31329\C,2.89844,-0.27
 574,0.14076\H,2.87507,-0.45564,1.22343\H,3.56854,-1.00745,-0.33119\H,3
 .28796,0.73517,-0.03771\N,1.53625,-0.35981,-0.38468\H,1.11682,-1.28019
 ,-0.2366\H,1.49799,-0.19073,-1.39183\H,0.92412,1.69595,0.12013\H,0.444
 ,0.45156,1.35813\H,-1.17856,1.21122,-1.18201\H,-1.53842,-0.71182,1.241

 Normal termination of Gaussian 16 at Sat Dec 30 20:58:26 2023.
