 Gaussian 16, Revision C.01,
 Gaussian 16:  ES64L-G16RevC.01  3-Jul-2019

 ----------------------------------------------------------------------
 # wb97xd def2svp geom=allchk scrf=(iefpcm,solvent=toluene) opt=(readfc
 ,ts,noeigen,maxcycles=50,maxstep=10)
 ----------------------------------------------------------------------

 Structure from the checkpoint file:  "allylic-1_1_opt_hf_re.chk"
 ----------------------
 allylic-1_1_opt_hf.out
 ----------------------
 Charge =  0 Multiplicity = 1

 SCF Done:  E(RwB97XD) =  -389.899470137     A.U. after   16 cycles
 SCF Done:  E(RwB97XD) =  -389.899269832     A.U. after   14 cycles
 SCF Done:  E(RwB97XD) =  -389.899512061     A.U. after   12 cycles
 SCF Done:  E(RwB97XD) =  -389.899476396     A.U. after   14 cycles
 SCF Done:  E(RwB97XD) =  -389.899487188     A.U. after   12 cycles
 SCF Done:  E(RwB97XD) =  -389.899487110     A.U. after   11 cycles
 SCF Done:  E(RwB97XD) =  -389.899487437     A.U. after   11 cycles
 SCF Done:  E(RwB97XD) =  -389.899487447     A.U. after   10 cycles
 Optimization completed.
    -- Stationary point found.

                         Standard orientation:
 ---------------------------------------------------------------------
 Center     Atomic      Atomic             Coordinates (Angstroms)
 Number     Number       Type             X           Y           Z
 ---------------------------------------------------------------------
      1          6           0        0.923433    0.458250   -0.940478
      2          6           0       -2.395533    0.199295    0.264787
      3          6           0        0.976632   -1.893753   -0.527703
      4          6           0       -2.287287   -0.685001   -0.714464
      5          7           0        1.240193   -0.486395   -0.134064
      6          1           0       -3.148888   -0.836779   -1.366599
      7          1           0        0.312878   -2.258573    0.286811
      8          1           0       -3.277704    0.804330    0.491207
      9          1           0        1.939468   -2.412618   -0.333959
     10          1           0        0.535132    0.090810   -1.895071
     11          1           0       -1.371056   -1.267577   -0.888418
     12          9           0       -1.388502    0.458925    1.119417
     13          6           0        1.015943    1.918664   -0.662260
     14          1           0        0.661895    2.488502   -1.528805
     15          1           0        0.393240    2.177786    0.207649
     16          1           0        2.050711    2.225326   -0.444065
     17          6           0        1.770878   -0.206449    1.198377
     18          1           0        2.626965   -0.871067    1.367096
     19          1           0        2.080104    0.838534    1.329001
     20          1           0        0.988029   -0.450274    1.929294
 ---------------------------------------------------------------------

 The electronic state is 1-A.
 Alpha  occ. eigenvalues --  -24.82785 -14.52797 -10.37909 -10.37702 -10.34000
 Alpha  occ. eigenvalues --  -10.32438 -10.29225 -10.23170  -1.31074  -1.08262
 Alpha  occ. eigenvalues --   -0.87366  -0.85644  -0.82209  -0.74816  -0.69453
 Alpha  occ. eigenvalues --   -0.65607  -0.61754  -0.58437  -0.57670  -0.56363
 Alpha  occ. eigenvalues --   -0.56199  -0.55562  -0.51703  -0.49765  -0.48712
 Alpha  occ. eigenvalues --   -0.48441  -0.46088  -0.45170  -0.44299  -0.37055
 Alpha  occ. eigenvalues --   -0.34609  -0.22341
 Alpha virt. eigenvalues --    0.02601   0.09009   0.13262   0.16437   0.16691
 Alpha virt. eigenvalues --    0.17040   0.19362   0.20794   0.21179   0.21586
 Alpha virt. eigenvalues --    0.22624   0.22912   0.24365   0.25106   0.27206

 Mulliken charges:
               1
     1  C    0.046766
     2  C    0.148826
     3  C   -0.301906
     4  C   -0.155860
     5  N   -0.189694
     6  H    0.070742
     7  H   -0.019046
     8  H    0.056140
     9  H   -0.031201
    10  H    0.082478
    11  H    0.074745
    12  F   -0.230992
    13  C   -0.066273
    14  H    0.076496
    15  H    0.089901
    16  H    0.094067
    17  C    0.052875
    18  H    0.071143
    19  H    0.049505
    20  H    0.081289
 Sum of Mulliken charges =  -0.00000

 Dipole moment (field-independent basis, Debye):
    X=              0.2823    Y=              5.8881    Z=              1.6040  Tot=              6.1092
 Quadrupole moment (field-independent basis, Debye-Ang):
   XX=            -41.7913   YY=            -56.7094   ZZ=            -50.8906
   XY=              3.7482   XZ=              4.0335   YZ=             -6.6454

 1\1\GINC-NODE-006\FTS\RwB97XD\def2SVP\C6H12F1N1\JP2658\22-Dec-2023\0\\
 # wb97xd def2svp geom=allchk scrf=(iefpcm,solvent=toluene) opt=(readfc
 ,ts,noeigen,maxcycles=50,maxstep=10)\\allylic-1_1_opt_hf.out\\0,1\C,-0
 .9205109499,-0.4656081853,-0.9441830751\C,2.3947540706,-0.176336666,0.
 2643662327\C,-0.9975784835,1.8847460561,-0.5258236292\C,2.27842345,0.7
 091808059,-0.7128524236\N,-1.247343063,0.4738790431,-0.1357661584\H,3.
 1389699431,0.8711407915,-1.3639297739\H,-0.3381462346,2.2542354714,0.2
 900948032\H,3.2827618065,-0.7730522949,0.490046491\H,-1.965712988,2.39

 Normal termination of Gaussian 16 at Fri Dec 22 23:22:23 2023.
