 Gaussian 16, Revision C.01,
 Gaussian 16:  ES64L-G16RevC.01  3-Jul-2019

 ----------------------------------------------------------------------
 # wb97xd def2svp geom=allchk scrf=(iefpcm,solvent=toluene) opt=(readfc
 ,ts,noeigen,maxcycles=50,maxstep=10)
 ----------------------------------------------------------------------

 Structure from the checkpoint file:  "BPA_TS_2_opt_hf_re.chk"
 ----------------------
 BPA_TS_2_opt_hf_re.out
 ----------------------
 Charge =  0 Multiplicity = 1

 SCF Done:  E(RwB97XD) =  -3050.63524915     A.U. after   14 cycles
 SCF Done:  E(RwB97XD) =  -3050.63541576     A.U. after   10 cycles
 SCF Done:  E(RwB97XD) =  -3050.63549436     A.U. after   11 cycles
 SCF Done:  E(RwB97XD) =  -3050.63551929     A.U. after   10 cycles
 SCF Done:  E(RwB97XD) =  -3050.63554731     A.U. after    9 cycles
 SCF Done:  E(RwB97XD) =  -3050.63555415     A.U. after    8 cycles
 SCF Done:  E(RwB97XD) =  -3050.63555955     A.U. after    9 cycles
 SCF Done:  E(RwB97XD) =  -3050.63556287     A.U. after    9 cycles
 SCF Done:  E(RwB97XD) =  -3050.63556437     A.U. after    7 cycles
 SCF Done:  E(RwB97XD) =  -3050.63556561     A.U. after    7 cycles
 SCF Done:  E(RwB97XD) =  -3050.63556569     A.U. after    6 cycles
 SCF Done:  E(RwB97XD) =  -3050.63556568     A.U. after    6 cycles
 Optimization completed.
    -- Stationary point found.

                         Standard orientation:
 ---------------------------------------------------------------------
 Center     Atomic      Atomic             Coordinates (Angstroms)
 Number     Number       Type             X           Y           Z
 ---------------------------------------------------------------------
      1          6           0       -0.851892    0.674772   -2.398094
      2          6           0       -0.806578    1.841877   -1.548455
      3          6           0        0.098696    4.034733   -0.732938
      4          6           0        2.763876    2.916419   -0.974632
      5          8           0       -1.678934    1.908635   -0.549853
      6          1           0        0.186873    3.752826    0.328515
      7          1           0       -0.859087    4.563698   -0.850957
      8          1           0        0.898729    4.750331   -0.962154
      9          8           0        3.143811    3.384353    0.069418
     10          8           0        3.118334    3.370060   -2.169405
     11          6           0        4.012223    4.474598   -2.190002
     12          1           0        4.184475    4.709366   -3.245385
     13          1           0        3.572599    5.340388   -1.674295
     14          1           0        4.960859    4.214320   -1.699905
     15         14           0       -3.390743    1.735932   -0.466960
     16          6           0       -4.044057    1.189595   -2.133086
     17          1           0       -5.140788    1.296640   -2.139387
     18          1           0       -3.640831    1.809703   -2.948161
     19          1           0       -3.808240    0.139846   -2.357028
     20          6           0       -3.744785    0.491804    0.874561
     21          1           0       -3.603540    0.917284    1.878994
     22          1           0       -3.083669   -0.380564    0.774804
     23          1           0       -4.785732    0.139254    0.803181
     24          6           0       -4.061099    3.454808   -0.024256
     25          6           0       -3.879278    4.407505   -1.216257
     26          1           0       -4.210456    5.425713   -0.948634
     27          1           0       -2.827485    4.476966   -1.535032
     28          1           0       -4.470573    4.088857   -2.088951
     29          6           0       -5.559682    3.328176    0.301337
     30          1           0       -6.139199    2.931889   -0.548273
     31          1           0       -5.979869    4.318707    0.547206
     32          1           0       -5.739165    2.672501    1.168249
     33          6           0       -3.319328    4.003548    1.203772
     34          1           0       -3.685648    5.014510    1.452930
     35          1           0       -3.482299    3.369853    2.090057
     36          1           0       -2.234471    4.065856    1.034393
     37          6           0        1.872248    1.687775   -1.056648
     38          6           0        0.175070    2.825691   -1.627588
     39          6           0       -0.051684    0.454126   -3.461616
     40          8           0        2.149917    0.838717   -1.933164
     41          1           0        1.462210    1.397820   -0.075887
     42          6           0       -0.010999   -0.834133   -4.205387
     43          1           0       -1.518892   -0.127648   -2.072053
     44          1           0        0.660810    2.941297   -2.597831
     45          6           0        1.798312    2.687853    3.047251
     46          6           0        0.589407    3.230616    3.402478
     47          6           0       -0.599069    2.486404    3.210724
     48          6           0       -0.554979    1.220454    2.680821
     49          1           0        2.721031    3.260361    3.158758
     50          1           0        0.538850    4.238542    3.819232
     51          1           0       -1.561184    2.927287    3.477616
     52          1           0       -1.478350    0.666719    2.521687
     53          6           0        1.874332    1.380685    2.493951
     54          6           0        0.683074    0.621713    2.319050
     55          6           0        0.774818   -0.689908    1.740248
     56          6           0        2.001112   -1.122397    1.271724
     57          6           0        3.199186   -0.360403    1.405128
     58          6           0        3.111750    0.854235    2.045335
     59          8           0        2.075247   -2.342689    0.647661
     60          1           0        4.011258    1.459206    2.172645
     61          6           0       -2.801064   -3.004340    1.129736
     62          6           0       -1.986613   -2.714617    0.059653
     63          6           0       -0.769489   -2.020767    0.321085
     64          6           0       -0.425223   -1.558283    1.578453
     65          1           0       -3.743660   -3.528979    0.955994
     66          8           0        0.060535   -1.751221   -0.738534
     67          6           0       -1.243527   -1.933458    2.695720
     68          6           0       -2.446036   -2.658046    2.458598
     69          6           0       -3.272524   -3.019625    3.557876
     70          6           0       -2.913239   -2.698927    4.843027
     71          6           0       -1.700252   -2.010284    5.084250
     72          6           0       -0.887335   -1.638201    4.041305
     73          1           0       -4.196833   -3.567610    3.359583
     74          1           0       -3.552086   -2.984788    5.681126
     75          1           0       -1.404055   -1.779185    6.109570
     76          1           0        0.049865   -1.118993    4.244346
     77          6           0        6.935225   -1.605603   -0.308181
     78          6           0        6.472569   -0.302562   -0.483166
     79          6           0        5.257028    0.087161    0.074763
     80          6           0        4.484583   -0.818371    0.815032
     81          6           0        4.958690   -2.126608    0.984320
     82          6           0        6.175261   -2.514132    0.428727
     83          1           0        7.885442   -1.915213   -0.748814
     84          1           0        7.056268    0.414433   -1.064575
     85          1           0        4.891432    1.105576   -0.074485
     86          1           0        4.370302   -2.845816    1.555203
     87          1           0        6.531270   -3.536714    0.571284
     88         15           0        1.491908   -2.541351   -0.861499
     89          8           0        1.420946   -3.974370   -1.187406
     90          8           0        2.283744   -1.631958   -1.840185
     91          1           0        2.163898   -0.605189   -1.809398
     92          6           0       -3.335585   -3.524926   -3.938178
     93          6           0       -2.105700   -4.025128   -3.509277
     94          6           0       -1.648410   -3.772933   -2.217267
     95          6           0       -2.425778   -3.015667   -1.330860
     96          6           0       -3.667117   -2.529592   -1.764393
     97          6           0       -4.118502   -2.777324   -3.060170
     98          1           0       -3.684502   -3.720612   -4.954487
     99          1           0       -1.489146   -4.617983   -4.188403
    100          1           0       -0.680175   -4.163636   -1.897778
    101          1           0       -4.278653   -1.938345   -1.078153
    102          1           0       -5.083784   -2.381155   -3.383411
    103          1           0        0.610625    1.246450   -3.819822
    104          1           0       -0.154005   -0.671209   -5.285028
    105          1           0        0.982352   -1.293701   -4.076883
    106          1           0       -0.765614   -1.543743   -3.839393
 ---------------------------------------------------------------------

 The electronic state is 1-A.
 Alpha  occ. eigenvalues --  -77.37323 -66.29195 -19.31553 -19.30471 -19.30115
 Alpha  occ. eigenvalues --  -19.28714 -19.26827 -19.25962 -19.25078 -19.21607
 Alpha  occ. eigenvalues --  -10.43518 -10.39718 -10.39493 -10.37987 -10.37803
 Alpha  occ. eigenvalues --  -10.36083 -10.33015 -10.32725 -10.32630 -10.32426
 Alpha  occ. eigenvalues --  -10.32379 -10.32303 -10.32142 -10.31891 -10.31830
 Alpha  occ. eigenvalues --  -10.31609 -10.31593 -10.31299 -10.31270 -10.31231
 Alpha  occ. eigenvalues --  -10.31084 -10.30983 -10.30942 -10.30885 -10.30868
 Alpha  occ. eigenvalues --  -10.30824 -10.30809 -10.30792 -10.30693 -10.30678
 Alpha  occ. eigenvalues --  -10.30660 -10.30638 -10.30425 -10.30193 -10.30084
 Alpha  occ. eigenvalues --  -10.30072 -10.30030 -10.30011 -10.29992 -10.29970
 Alpha  occ. eigenvalues --  -10.29915 -10.29858 -10.29727 -10.29588 -10.29383
 Alpha  occ. eigenvalues --  -10.28786 -10.28603  -6.80740  -5.41792  -4.96136
 Alpha  occ. eigenvalues --   -4.96031  -4.95807  -3.76897  -3.76450  -3.76409
 Alpha  occ. eigenvalues --   -1.21954  -1.20989  -1.15416  -1.15357  -1.13295
 Alpha  occ. eigenvalues --   -1.12279  -1.11344  -1.05367  -0.99182  -0.97963
 Alpha  occ. eigenvalues --   -0.96045  -0.95543  -0.93116  -0.92389  -0.92005
 Alpha  occ. eigenvalues --   -0.90630  -0.90477  -0.88198  -0.86730  -0.86291
 Alpha  occ. eigenvalues --   -0.85865  -0.84680  -0.84192  -0.83941  -0.83618
 Alpha  occ. eigenvalues --   -0.82585  -0.81850  -0.81773  -0.80836  -0.80377
 Alpha  occ. eigenvalues --   -0.78697  -0.77963  -0.77406  -0.76895  -0.75993
 Alpha  occ. eigenvalues --   -0.75003  -0.73585  -0.73140  -0.72302  -0.71434
 Alpha  occ. eigenvalues --   -0.70359  -0.69827  -0.69391  -0.68813  -0.68328
 Alpha  occ. eigenvalues --   -0.67959  -0.66751  -0.66659  -0.66459  -0.65919
 Alpha  occ. eigenvalues --   -0.65106  -0.64037  -0.62976  -0.62373  -0.61475
 Alpha  occ. eigenvalues --   -0.61247  -0.61023  -0.60503  -0.60288  -0.58878
 Alpha  occ. eigenvalues --   -0.57704  -0.57543  -0.57408  -0.57199  -0.57035
 Alpha  occ. eigenvalues --   -0.56127  -0.55797  -0.55624  -0.55011  -0.54534
 Alpha  occ. eigenvalues --   -0.54466  -0.54185  -0.53690  -0.53579  -0.53203
 Alpha  occ. eigenvalues --   -0.53085  -0.52852  -0.52688  -0.52559  -0.52238
 Alpha  occ. eigenvalues --   -0.52200  -0.51993  -0.51593  -0.51384  -0.51242
 Alpha  occ. eigenvalues --   -0.51064  -0.50825  -0.50674  -0.50423  -0.50148
 Alpha  occ. eigenvalues --   -0.49736  -0.49220  -0.49117  -0.48962  -0.48759
 Alpha  occ. eigenvalues --   -0.48529  -0.48428  -0.48373  -0.48121  -0.47689
 Alpha  occ. eigenvalues --   -0.47263  -0.47126  -0.46934  -0.46865  -0.46582
 Alpha  occ. eigenvalues --   -0.46408  -0.46143  -0.45945  -0.45487  -0.45267
 Alpha  occ. eigenvalues --   -0.45084  -0.44949  -0.44630  -0.44485  -0.44369
 Alpha  occ. eigenvalues --   -0.43941  -0.43417  -0.43235  -0.43123  -0.42693
 Alpha  occ. eigenvalues --   -0.42447  -0.42128  -0.41680  -0.41445  -0.41181
 Alpha  occ. eigenvalues --   -0.40980  -0.40682  -0.40516  -0.40345  -0.39926
 Alpha  occ. eigenvalues --   -0.39585  -0.38453  -0.38242  -0.37958  -0.36887
 Alpha  occ. eigenvalues --   -0.36496  -0.35102  -0.34559  -0.34498  -0.33726
 Alpha  occ. eigenvalues --   -0.33474  -0.32964  -0.31509  -0.30824  -0.30267
 Alpha  occ. eigenvalues --   -0.29887  -0.28717
 Alpha virt. eigenvalues --   -0.01440  -0.00149   0.01035   0.03057   0.03526
 Alpha virt. eigenvalues --    0.05189   0.05529   0.06312   0.06386   0.07243
 Alpha virt. eigenvalues --    0.08013   0.09907   0.10796   0.11603   0.12259

 Mulliken charges:
               1
     1  C   -0.029660
     2  C    0.225538
     3  C    0.069878
     4  C    0.180936
     5  O   -0.454300
     6  H    0.061903
     7  H    0.045371
     8  H    0.037747
     9  O   -0.252128
    10  O   -0.315643
    11  C    0.126781
    12  H    0.066399
    13  H    0.056065
    14  H    0.059173
    15  Si   0.680990
    16  C   -0.288062
    17  H    0.073483
    18  H    0.077211
    19  H    0.065789
    20  C   -0.281854
    21  H    0.082174
    22  H    0.093472
    23  H    0.074926
    24  C   -0.505525
    25  C    0.016358
    26  H    0.030769
    27  H    0.035204
    28  H    0.033909
    29  C    0.017348
    30  H    0.034705
    31  H    0.032781
    32  H    0.036743
    33  C    0.027687
    34  H    0.026599
    35  H    0.030603
    36  H    0.033819
    37  C    0.236268
    38  C   -0.300976
    39  C   -0.090368
    40  O   -0.366576
    41  H    0.035827
    42  C   -0.001016
    43  H    0.025881
    44  H    0.070348
    45  C   -0.020131
    46  C   -0.022828
    47  C   -0.011896
    48  C   -0.007230
    49  H    0.019626
    50  H    0.026951
    51  H    0.020603
    52  H   -0.014310
    53  C    0.009263
    54  C    0.019879
    55  C    0.026688
    56  C    0.072744
    57  C    0.054491
    58  C   -0.077046
    59  O   -0.445375
    60  H    0.014176
    61  C   -0.089673
    62  C    0.039266
    63  C    0.123148
    64  C    0.012698
    65  H    0.011535
    66  O   -0.471100
    67  C    0.027757
    68  C    0.031553
    69  C   -0.042278
    70  C   -0.014608
    71  C   -0.015957
    72  C   -0.039768
    73  H    0.017713
    74  H    0.030663
    75  H    0.030841
    76  H    0.031767
    77  C   -0.019146
    78  C   -0.021864
    79  C   -0.033202
    80  C    0.005147
    81  C   -0.013357
    82  C   -0.027295
    83  H    0.028753
    84  H    0.023650
    85  H    0.007195
    86  H    0.028585
    87  H    0.030116
    88  P    1.131071
    89  O   -0.483061
    90  O   -0.420548
    91  H    0.272638
    92  C   -0.020131
    93  C   -0.033056
    94  C   -0.030955
    95  C    0.007192
    96  C   -0.039236
    97  C   -0.021630
    98  H    0.030345
    99  H    0.033251
   100  H    0.029141
   101  H    0.008285
   102  H    0.027173
   103  H    0.055036
   104  H    0.054119
   105  H    0.074951
   106  H    0.051094
 Sum of Mulliken charges =  -0.00000

 Dipole moment (field-independent basis, Debye):
    X=             -5.7972    Y=              8.1939    Z=             -0.7206  Tot=             10.0631
 Quadrupole moment (field-independent basis, Debye-Ang):
   XX=           -315.7383   YY=           -348.6659   ZZ=           -327.2096
   XY=             15.2800   XZ=             -4.3203   YZ=            -12.0826

 Normal termination of Gaussian 16 at Thu Dec 21 15:32:10 2023.
