 Gaussian 16, Revision C.01,
 Gaussian 16:  ES64L-G16RevC.01  3-Jul-2019

 ----------------------------------------------------------------------
 # wb97xd def2svp geom=allchk scrf=(iefpcm,solvent=toluene) opt=(readfc
 ,ts,noeigen,maxcycles=50,maxstep=10)
 ----------------------------------------------------------------------

 Structure from the checkpoint file:  "cyclic-1_1_opt_hf_re.chk"
 -------------------------
 cyclic-1_1_opt_hf_re4.out
 -------------------------
 Charge =  0 Multiplicity = 1

 SCF Done:  E(RwB97XD) =  -719.231874849     A.U. after   15 cycles
 SCF Done:  E(RwB97XD) =  -719.231864295     A.U. after   12 cycles
 SCF Done:  E(RwB97XD) =  -719.231876119     A.U. after   11 cycles
 SCF Done:  E(RwB97XD) =  -719.231874832     A.U. after    8 cycles
 SCF Done:  E(RwB97XD) =  -719.231875651     A.U. after    7 cycles
 SCF Done:  E(RwB97XD) =  -719.231875709     A.U. after    7 cycles
 Optimization completed on the basis of negligible forces.
    -- Stationary point found.

                         Standard orientation:
 ---------------------------------------------------------------------
 Center     Atomic      Atomic             Coordinates (Angstroms)
 Number     Number       Type             X           Y           Z
 ---------------------------------------------------------------------
      1          6           0       -1.705124   -0.157038    0.145168
      2          6           0        0.287762    2.972657   -0.309235
      3          6           0       -0.480992   -1.746610    1.047101
      4          6           0        1.060846    2.012121   -0.817129
      5          7           0       -1.083059   -0.548005    1.245322
      6          1           0       -0.157011    3.743587   -0.941092
      7          1           0        0.078126    3.005444    0.763505
      8          1           0        0.101567   -2.244443    1.812235
      9          1           0        1.294591    1.952785   -1.882247
     10          8           0       -1.548680   -1.060685   -0.802414
     11          6           0       -0.734993   -2.144984   -0.290217
     12          8           0       -0.442699   -3.071044   -0.995021
     13          6           0        1.647418    0.963858    0.057296
     14          8           0        1.438492    0.848484    1.244631
     15          8           0        2.433175    0.144452   -0.635533
     16          6           0        3.037611   -0.932762    0.067311
     17          1           0        3.759205   -1.381539   -0.623049
     18          1           0        2.278536   -1.677374    0.346260
     19          1           0        3.544458   -0.573762    0.973365
     20          6           0       -2.446720    1.033281   -0.023620
     21          7           0       -3.051500    2.014727   -0.143711
     22          1           0       -0.994693    0.015456    2.086398
 ---------------------------------------------------------------------

 The electronic state is 1-A.
 Alpha  occ. eigenvalues --  -19.35281 -19.31461 -19.25651 -19.23518 -14.57722
 Alpha  occ. eigenvalues --  -14.48507 -10.45390 -10.44041 -10.43279 -10.38067
 Alpha  occ. eigenvalues --  -10.35797 -10.35381 -10.32909 -10.32321  -1.26532
 Alpha  occ. eigenvalues --   -1.21603  -1.13450  -1.12024  -1.10132  -1.03295
 Alpha  occ. eigenvalues --   -0.90570  -0.89958  -0.83384  -0.79917  -0.76015
 Alpha  occ. eigenvalues --   -0.73100  -0.71938  -0.65253  -0.63859  -0.62485
 Alpha  occ. eigenvalues --   -0.61523  -0.58675  -0.58127  -0.57957  -0.54423
 Alpha  occ. eigenvalues --   -0.53051  -0.51354  -0.51277  -0.50777  -0.49333
 Alpha  occ. eigenvalues --   -0.48642  -0.47901  -0.47425  -0.46655  -0.44948
 Alpha  occ. eigenvalues --   -0.44758  -0.39935  -0.38004  -0.37651  -0.37541
 Alpha  occ. eigenvalues --   -0.29167
 Alpha virt. eigenvalues --   -0.02089   0.01249   0.05251   0.11607   0.13039
 Alpha virt. eigenvalues --    0.14746   0.15685   0.16561   0.17543   0.17788
 Alpha virt. eigenvalues --    0.18983   0.19802   0.21092   0.21199   0.22329

 Mulliken charges:
               1
     1  C    0.033029
     2  C   -0.012176
     3  C   -0.131189
     4  C   -0.127702
     5  N    0.008224
     6  H    0.082673
     7  H    0.068943
     8  H    0.080209
     9  H    0.065491
    10  O   -0.253095
    11  C    0.258283
    12  O   -0.252961
    13  C    0.250321
    14  O   -0.295978
    15  O   -0.320611
    16  C    0.122777
    17  H    0.067189
    18  H    0.061391
    19  H    0.056619
    20  C   -0.055775
    21  N    0.094099
    22  H    0.200239
 Sum of Mulliken charges =  -0.00000

 Dipole moment (field-independent basis, Debye):
    X=              2.1152    Y=              1.7745    Z=              4.0374  Tot=              4.8912
 Quadrupole moment (field-independent basis, Debye-Ang):
   XX=            -81.4602   YY=            -91.0476   ZZ=            -76.3306
   XY=              0.3486   XZ=             -6.0902   YZ=            -10.1451

 Normal termination of Gaussian 16 at Tue Dec 26 20:24:06 2023.
