 Gaussian 16, Revision C.01,
 Gaussian 16:  ES64L-G16RevC.01  3-Jul-2019

 ----------------------------------------------------------------------
 # wb97xd def2svp geom=allchk scrf=(iefpcm,solvent=toluene) opt=(readfc
 ,ts,noeigen,maxcycles=50,maxstep=10)
 ----------------------------------------------------------------------

 Structure from the checkpoint file:  "da-2_1_opt_hf_re.chk"
 ---------------------
 da-2_1_opt_hf_re3.out
 ---------------------
 Charge =  0 Multiplicity = 1

 SCF Done:  E(RwB97XD) =  -573.998310336     A.U. after   14 cycles
 SCF Done:  E(RwB97XD) =  -573.998290050     A.U. after   12 cycles
 SCF Done:  E(RwB97XD) =  -573.998310254     A.U. after   12 cycles
 SCF Done:  E(RwB97XD) =  -573.998310183     A.U. after    9 cycles
 SCF Done:  E(RwB97XD) =  -573.998310379     A.U. after    8 cycles
 Optimization completed.
    -- Stationary point found.

                         Standard orientation:
 ---------------------------------------------------------------------
 Center     Atomic      Atomic             Coordinates (Angstroms)
 Number     Number       Type             X           Y           Z
 ---------------------------------------------------------------------
      1          6           0       -1.328707    1.205392   -0.480288
      2          6           0        1.075583   -1.618128   -0.488236
      3          6           0       -2.880556   -1.455288   -0.652819
      4          6           0        0.886850   -1.481501    0.823171
      5          6           0       -1.918661    0.539493    0.523791
      6          6           0       -2.451013   -0.830146    0.450001
      7          1           0       -3.242969   -2.485205   -0.613114
      8          1           0       -2.900254   -0.957900   -1.627290
      9          1           0       -1.197964    0.695667   -1.444421
     10          1           0        0.876016   -2.470848   -1.133933
     11          1           0        0.492873   -2.193207    1.545783
     12          8           0        1.752886    0.524007    0.063301
     13          6           0        1.614591   -0.328698   -1.006971
     14          6           0        1.304094   -0.101510    1.204923
     15          8           0        1.892729   -0.006976   -2.117841
     16          8           0        1.293849    0.435715    2.265163
     17          6           0       -0.808244    2.604199   -0.398672
     18          1           0       -1.312286    3.251198   -1.134942
     19          1           0       -0.957287    3.034998    0.601761
     20          1           0        0.267884    2.632199   -0.631512
     21          1           0       -2.002330    1.035018    1.498465
     22          1           0       -2.503021   -1.366770    1.404805
 ---------------------------------------------------------------------

 The electronic state is 1-A.
 Alpha  occ. eigenvalues --  -19.33744 -19.28564 -19.28492 -10.46509 -10.46481
 Alpha  occ. eigenvalues --  -10.35887 -10.35759 -10.31094 -10.30936 -10.30302
 Alpha  occ. eigenvalues --  -10.30100 -10.29424  -1.25748  -1.18535  -1.14704
 Alpha  occ. eigenvalues --   -0.94796  -0.90833  -0.85119  -0.80033  -0.77244
 Alpha  occ. eigenvalues --   -0.73976  -0.69254  -0.68762  -0.61986  -0.61023
 Alpha  occ. eigenvalues --   -0.60889  -0.57368  -0.57184  -0.56023  -0.53835
 Alpha  occ. eigenvalues --   -0.53757  -0.52072  -0.51174  -0.49743  -0.49329
 Alpha  occ. eigenvalues --   -0.47340  -0.43756  -0.43516  -0.42982  -0.41635
 Alpha  occ. eigenvalues --   -0.41376  -0.39057  -0.38628  -0.31099
 Alpha virt. eigenvalues --   -0.04484   0.03546   0.10694   0.12631   0.14184
 Alpha virt. eigenvalues --    0.15038   0.15558   0.16440   0.17334   0.19099
 Alpha virt. eigenvalues --    0.20614   0.21489   0.22501   0.23295   0.24987

 Mulliken charges:
               1
     1  C   -0.159295
     2  C   -0.059178
     3  C   -0.094866
     4  C   -0.051861
     5  C   -0.047738
     6  C   -0.064447
     7  H    0.056285
     8  H    0.052399
     9  H    0.038186
    10  H    0.080940
    11  H    0.080344
    12  O   -0.284911
    13  C    0.281005
    14  C    0.287434
    15  O   -0.170852
    16  O   -0.166609
    17  C   -0.005247
    18  H    0.055204
    19  H    0.043234
    20  H    0.058428
    21  H    0.034329
    22  H    0.037215
 Sum of Mulliken charges =  -0.00000

 Dipole moment (field-independent basis, Debye):
    X=             -1.4355    Y=             -3.5865    Z=              0.1386  Tot=              3.8656
 Quadrupole moment (field-independent basis, Debye-Ang):
   XX=            -75.6415   YY=            -62.0426   ZZ=            -77.0356
   XY=             -3.8483   XZ=              1.3907   YZ=             -2.1208

 Normal termination of Gaussian 16 at Mon Dec 25 18:52:29 2023.
