 Gaussian 16, Revision C.01,
 Gaussian 16:  ES64L-G16RevC.01  3-Jul-2019

 ----------------------------------------------------------------------
 # wb97xd def2svp geom=allchk scrf=(iefpcm,solvent=toluene) opt=(readfc
 ,ts,noeigen,maxcycles=50,maxstep=10)
 ----------------------------------------------------------------------

 Structure from the checkpoint file:  "imda-1_1_opt_hf_re.chk"
 -------------------
 imda-1_1_opt_hf.out
 -------------------
 Charge =  0 Multiplicity = 1

 SCF Done:  E(RwB97XD) =  -961.702758624     A.U. after   15 cycles
 SCF Done:  E(RwB97XD) =  -961.702758454     A.U. after    8 cycles
 SCF Done:  E(RwB97XD) =  -961.702758296     A.U. after    7 cycles
 Optimization completed.
    -- Stationary point found.

                         Standard orientation:
 ---------------------------------------------------------------------
 Center     Atomic      Atomic             Coordinates (Angstroms)
 Number     Number       Type             X           Y           Z
 ---------------------------------------------------------------------
      1          6           0       -2.467254    0.315746   -0.219560
      2          6           0        0.989538    1.271859    1.116617
      3          6           0       -0.919514   -1.477988   -0.040496
      4          6           0        1.368004   -0.003023    1.098655
      5          6           0       -2.672750   -0.349025    0.939239
      6          6           0       -1.720561   -1.456612    1.047012
      7          6           0        0.226312   -2.404005   -0.321786
      8          1           0        0.462220   -2.978080    0.588581
      9          1           0       -0.075657   -3.148988   -1.078261
     10          6           0        1.486866   -1.715186   -0.857104
     11          1           0        2.259720   -2.452761   -1.120139
     12          1           0        1.250018   -1.190552   -1.800302
     13          6           0        2.164458   -0.664690    0.008291
     14          8           0        3.313843   -0.350304   -0.190178
     15          1           0        1.058418   -0.628863    1.940792
     16          1           0        0.415104    1.710074    1.933899
     17          6           0       -1.347056   -0.363789   -0.959316
     18          1           0       -1.687962   -0.753504   -1.936575
     19          1           0       -0.530242    0.344496   -1.182999
     20         17           0        1.285841    2.383556   -0.187541
     21          6           0       -3.172056    1.525016   -0.740037
     22          1           0       -2.465437    2.359793   -0.880521
     23          1           0       -3.960750    1.856696   -0.050236
     24          1           0       -3.634962    1.330393   -1.721339
     25          1           0       -1.652686   -2.139119    1.896964
     26          1           0       -3.423726   -0.097426    1.690654
 ---------------------------------------------------------------------

 The electronic state is 1-A.
 Alpha  occ. eigenvalues -- -101.68792 -19.25543 -10.40038 -10.36777 -10.32225
 Alpha  occ. eigenvalues --  -10.31259 -10.31231 -10.30186 -10.30080 -10.30049
 Alpha  occ. eigenvalues --  -10.29685 -10.29206 -10.29010  -9.59535  -7.34903
 Alpha  occ. eigenvalues --   -7.33980  -7.33911  -1.14499  -0.97844  -0.96150
 Alpha  occ. eigenvalues --   -0.89930  -0.86025  -0.83820  -0.79555  -0.77588
 Alpha  occ. eigenvalues --   -0.72959  -0.70511  -0.62719  -0.61631  -0.60762
 Alpha  occ. eigenvalues --   -0.59596  -0.57495  -0.55478  -0.54845  -0.53431
 Alpha  occ. eigenvalues --   -0.52542  -0.49932  -0.49800  -0.48956  -0.48601
 Alpha  occ. eigenvalues --   -0.47408  -0.45887  -0.45352  -0.44687  -0.43064
 Alpha  occ. eigenvalues --   -0.42831  -0.41365  -0.40119  -0.38208  -0.34790
 Alpha  occ. eigenvalues --   -0.33873  -0.28291
 Alpha virt. eigenvalues --    0.02930   0.04843   0.07726   0.12607   0.13317
 Alpha virt. eigenvalues --    0.14513   0.15302   0.16455   0.17482   0.18562
 Alpha virt. eigenvalues --    0.19277   0.20641   0.21724   0.22245   0.22715

 Mulliken charges:
               1
     1  C   -0.223240
     2  C   -0.018712
     3  C   -0.206729
     4  C   -0.031282
     5  C   -0.061688
     6  C   -0.062614
     7  C    0.095734
     8  H    0.029747
     9  H    0.050433
    10  C   -0.057624
    11  H    0.062179
    12  H    0.078702
    13  C    0.071105
    14  O   -0.224343
    15  H    0.081328
    16  H    0.099694
    17  C    0.127710
    18  H    0.064237
    19  H    0.038976
    20  Cl  -0.102450
    21  C    0.051575
    22  H    0.045741
    23  H    0.035057
    24  H    0.045114
    25  H    0.005714
    26  H    0.005638
 Sum of Mulliken charges =  -0.00000

 Dipole moment (field-independent basis, Debye):
    X=             -3.0677    Y=             -1.3967    Z=              0.4633  Tot=              3.4024
 Quadrupole moment (field-independent basis, Debye-Ang):
   XX=            -98.8845   YY=            -80.9180   ZZ=            -77.0222
   XY=             -5.4517   XZ=              1.0009   YZ=              0.5644

 Normal termination of Gaussian 16 at Thu Dec 28 13:26:51 2023.
