 Gaussian 16, Revision C.01,
 Gaussian 16:  ES64L-G16RevC.01  3-Jul-2019

 ----------------------------------------------------------------------
 # wb97xd def2svp geom=allchk scrf=(iefpcm,solvent=toluene) opt=(readfc
 ,ts,noeigen,maxcycles=50,maxstep=10)
 ----------------------------------------------------------------------

 Structure from the checkpoint file:  "TS-249_hf.chk"
 ----------
 TS-249.out
 ----------
 Charge =  0 Multiplicity = 1

 SCF Done:  E(RwB97XD) =  -287.436588189     A.U. after   15 cycles
 SCF Done:  E(RwB97XD) =  -287.441882740     A.U. after   13 cycles
 SCF Done:  E(RwB97XD) =  -287.445048792     A.U. after   12 cycles
 SCF Done:  E(RwB97XD) =  -287.446569473     A.U. after   12 cycles
 SCF Done:  E(RwB97XD) =  -287.447170701     A.U. after   12 cycles
 SCF Done:  E(RwB97XD) =  -287.447380411     A.U. after   13 cycles
 SCF Done:  E(RwB97XD) =  -287.447385760     A.U. after   12 cycles
 SCF Done:  E(RwB97XD) =  -287.447354375     A.U. after   12 cycles
 SCF Done:  E(RwB97XD) =  -287.447383969     A.U. after   12 cycles
 SCF Done:  E(RwB97XD) =  -287.447344810     A.U. after   12 cycles
 SCF Done:  E(RwB97XD) =  -287.447388207     A.U. after   12 cycles
 SCF Done:  E(RwB97XD) =  -287.447290124     A.U. after   12 cycles
 SCF Done:  E(RwB97XD) =  -287.447386625     A.U. after   12 cycles
 SCF Done:  E(RwB97XD) =  -287.447388230     A.U. after   10 cycles
 SCF Done:  E(RwB97XD) =  -287.447388263     A.U. after   10 cycles
 SCF Done:  E(RwB97XD) =  -287.447388393     A.U. after    8 cycles
 Optimization completed.
    -- Stationary point found.

                         Standard orientation:
 ---------------------------------------------------------------------
 Center     Atomic      Atomic             Coordinates (Angstroms)
 Number     Number       Type             X           Y           Z
 ---------------------------------------------------------------------
      1          6           0       -0.929606    0.659185   -0.270735
      2          6           0       -1.900056   -0.211666    0.290769
      3          8           0       -3.032488   -0.455856   -0.114515
      4          6           0        0.349325    0.781124    0.313294
      5          6           0        2.898444   -0.275738    0.140761
      6          1           0        2.875067   -0.455643    1.223433
      7          1           0        3.568543   -1.007451   -0.331191
      8          1           0        3.287963    0.735172   -0.037712
      9          7           0        1.536247   -0.359809   -0.384677
     10          1           0        1.116825   -1.280187   -0.236602
     11          1           0        1.497986   -0.190729   -1.391826
     12          1           0        0.924123    1.695952    0.120126
     13          1           0        0.444004    0.451562    1.358130
     14          1           0       -1.178557    1.211218   -1.182011
     15          1           0       -1.538422   -0.711816    1.241972
 ---------------------------------------------------------------------

 The electronic state is 1-A.
 Alpha  occ. eigenvalues --  -19.17620 -14.52853 -10.36182 -10.34791 -10.32766
 Alpha  occ. eigenvalues --  -10.24024  -1.05991  -1.05760  -0.85810  -0.80346
 Alpha  occ. eigenvalues --   -0.71849  -0.65969  -0.61492  -0.59116  -0.55761
 Alpha  occ. eigenvalues --   -0.51938  -0.51351  -0.50212  -0.47114  -0.44923
 Alpha  occ. eigenvalues --   -0.43415  -0.42065  -0.28243  -0.25328
 Alpha virt. eigenvalues --    0.09026   0.10806   0.14933   0.15224   0.17066
 Alpha virt. eigenvalues --    0.17790   0.19848   0.20263   0.22480   0.23416
 Alpha virt. eigenvalues --    0.25427   0.26243   0.34155   0.37048   0.44793

 Mulliken charges:
               1
     1  C   -0.282750
     2  C    0.145555
     3  O   -0.370255
     4  C    0.076261
     5  C    0.012151
     6  H    0.078076
     7  H    0.080532
     8  H    0.076968
     9  N   -0.203541
    10  H    0.173300
    11  H    0.177216
    12  H    0.050678
    13  H    0.051476
    14  H   -0.000980
    15  H   -0.064686
 Sum of Mulliken charges =  -0.00000

 Dipole moment (field-independent basis, Debye):
    X=             11.5316    Y=             -0.6969    Z=             -0.2759  Tot=             11.5559
 Quadrupole moment (field-independent basis, Debye-Ang):
   XX=            -48.5856   YY=            -36.6601   ZZ=            -35.2905
   XY=             -3.9226   XZ=             -2.7118   YZ=             -0.2828

 Normal termination of Gaussian 16 at Tue Dec 19 13:38:59 2023.
