 Gaussian 16, Revision C.01,
 Gaussian 16:  ES64L-G16RevC.01  3-Jul-2019

 ----------------------------------------------------------------------
 # m062x 6-31g(d) scrf=(iefpcm,solvent=benzene) opt=(maxcycles=50,maxst
 ep=10) freq=noraman
 ----------------------------------------------------------------------

 -----
 *****
 -----
 Symbolic Z-matrix:
 Charge =  0 Multiplicity = 1

 SCF Done:  E(RM062X) =  -117.831739861     A.U. after   11 cycles
 SCF Done:  E(RM062X) =  -117.832085293     A.U. after    9 cycles
 SCF Done:  E(RM062X) =  -117.832098972     A.U. after    8 cycles
 SCF Done:  E(RM062X) =  -117.832099819     A.U. after    7 cycles
 Optimization completed.
    -- Stationary point found.
 Normal termination of Gaussian 16 at Mon Dec 11 15:00:50 2023.

 --------------------------------------------------------------------
 #N Geom=AllCheck Guess=TCheck SCRF=Check GenChk RM062X/6-31G(d) Freq
 --------------------------------------------------------------------

 Structure from the checkpoint file:  "1a_gs_2_opt_freq.chk"
 -----
 *****
 -----
 Charge =  0 Multiplicity = 1

                         Standard orientation:
 ---------------------------------------------------------------------
 Center     Atomic      Atomic             Coordinates (Angstroms)
 Number     Number       Type             X           Y           Z
 ---------------------------------------------------------------------
      1          1           0       -2.071771    0.899053    0.000000
      2          6           0        0.000000    0.484941    0.000000
      3          1           0       -1.602804   -0.891779    0.000000
      4          6           0       -1.286871    0.149399    0.000000
      5          1           0        0.265456    1.540805    0.000000
      6          6           0        1.137915   -0.506798    0.000000
      7          1           0        2.107916   -0.005381    0.000000
      8          1           0        1.097469   -1.153973    0.881947
      9          1           0        1.097469   -1.153973   -0.881947
 ---------------------------------------------------------------------

 SCF Done:  E(RM062X) =  -117.832099819     A.U. after    1 cycles

 The electronic state is 1-A'.
 Alpha  occ. eigenvalues --  -10.54631 -10.53579 -10.53151  -0.87767  -0.76948
 Alpha  occ. eigenvalues --   -0.62742  -0.53024  -0.48101  -0.47388  -0.42731
 Alpha  occ. eigenvalues --   -0.39826  -0.30655
 Alpha virt. eigenvalues --    0.06282   0.15688   0.18092   0.20009   0.23539
 Alpha virt. eigenvalues --    0.24138   0.25090   0.33696   0.39059   0.54204
 Alpha virt. eigenvalues --    0.57659   0.59761   0.63919   0.66676   0.73277

 Mulliken charges:
               1
     1  H    0.162400
     2  C   -0.111654
     3  H    0.155868
     4  C   -0.371135
     5  H    0.160652
     6  C   -0.529356
     7  H    0.170747
     8  H    0.181239
     9  H    0.181239
 Sum of Mulliken charges =  -0.00000

 Dipole moment (field-independent basis, Debye):
    X=              0.3464    Y=             -0.0983    Z=              0.0000  Tot=              0.3601
 Quadrupole moment (field-independent basis, Debye-Ang):
   XX=            -18.7476   YY=            -18.6343   ZZ=            -21.4041
   XY=              0.1232   XZ=              0.0000   YZ=             -0.0000

  Exact polarizability:      47.526       0.861      33.847       0.000      -0.000      20.417
 Approx polarizability:      47.754       3.294      33.357       0.000      -0.000      21.702

 ******    1 imaginary frequencies (negative Signs) ******

                      1                      2                      3
                     A"                     A'                     A"
 Frequencies --   -214.8961               412.0288               595.6559
 Red. masses --      1.0956                 1.9749                 1.2904
 Frc consts  --      0.0298                 0.1975                 0.2698
 IR Inten    --      0.6181                 0.4795                15.1028

                      4                      5                      6
                     A'                     A"                     A'
 Frequencies --    932.3502               954.9011               982.8110
 Red. masses --      1.7008                 1.3237                 1.4698
 Frc consts  --      0.8711                 0.7111                 0.8364
 IR Inten    --      0.2540                38.3668                 0.7693

                      7                      8                      9
                     A"                     A"                     A'
 Frequencies --   1027.2180              1072.4158              1183.6123
 Red. masses --      1.0737                 1.4662                 1.7504
 Frc consts  --      0.6675                 0.9935                 1.4448
 IR Inten    --     20.7889                 1.1081                 6.1509

                     10                     11                     12
                     A'                     A'                     A'
 Frequencies --   1340.7364              1426.2592              1468.5860
 Red. masses --      1.2387                 1.1898                 1.2195
 Frc consts  --      1.3119                 1.4260                 1.5496
 IR Inten    --      0.4902                 1.8511                 2.8807

                     13                     14                     15
                     A'                     A"                     A'
 Frequencies --   1517.9551              1521.0921              1761.6058
 Red. masses --      1.0504                 1.0435                 4.7858
 Frc consts  --      1.4260                 1.4225                 8.7503
 IR Inten    --      5.4794                 7.0663                 9.7830

                     16                     17                     18
                     A'                     A"                     A'
 Frequencies --   3086.9093              3148.7441              3173.4615
 Red. masses --      1.0376                 1.1016                 1.0973
 Frc consts  --      5.8256                 6.4353                 6.5111
 IR Inten    --     19.3095                17.6536                10.9354

                     19                     20                     21
                     A'                     A'                     A'
 Frequencies --   3184.6097              3198.8455              3271.9165
 Red. masses --      1.0630                 1.0940                 1.1156
 Frc consts  --      6.3519                 6.5954                 7.0368
 IR Inten    --     18.9259                15.6807                20.1960

 - Thermochemistry -
 -------------------
 Temperature   298.150 Kelvin.  Pressure   1.00000 Atm.
 Atom     1 has atomic number  1 and mass   1.00783

 Molecular mass:    42.04695 amu.
 Principal axes and moments of inertia in atomic units:
                           1         2         3
     Eigenvalues --    39.03572 194.04975 221.88779
           X            0.95898   0.28346   0.00000
           Y           -0.28346   0.95898   0.00000
           Z           -0.00000   0.00000   1.00000
 This molecule is an asymmetric top.
 Rotational symmetry number  1.
 Rotational temperatures (Kelvin)      2.21884     0.44635     0.39035
 Rotational constants (GHZ):          46.23307     9.30040     8.13358
    1 imaginary frequencies ignored.
 Zero-point vibrational energy     210911.9 (Joules/Mol)
                                   50.40915 (Kcal/Mol)
 Warning -- explicit consideration of   2 degrees of freedom as
           vibrations may cause significant error
 Vibrational temperatures:    592.82   857.02  1341.44  1373.89  1414.05
          (Kelvin)           1477.94  1542.97  1702.95  1929.02  2052.07
                             2112.97  2184.00  2188.51  2534.56  4441.37
                             4530.34  4565.90  4581.94  4602.43  4707.56

 Zero-point correction=                           0.080332 (Hartree/Particle)
 Thermal correction to Energy=                    0.083867
 Thermal correction to Enthalpy=                  0.084811
 Thermal correction to Gibbs Free Energy=         0.055748
 Sum of electronic and zero-point Energies=           -117.751768
 Sum of electronic and thermal Energies=              -117.748233
 Sum of electronic and thermal Enthalpies=            -117.747289
 Sum of electronic and thermal Free Energies=         -117.776352

                     E (Thermal)             CV                S
                      KCal/Mol        Cal/Mol-Kelvin    Cal/Mol-Kelvin
 Total                   52.627             11.078             61.169
 Electronic               0.000              0.000              0.000
 Translational            0.889              2.981             37.135
 Rotational               0.889              2.981             22.046
 Vibrational             50.850              5.116              1.988
 Vibration     1          0.776              1.444              0.919
 Vibration     2          0.953              1.041              0.457

 Optimization completed.
    -- Stationary point found.
 Normal termination of Gaussian 16 at Mon Dec 11 15:00:57 2023.
