 Gaussian 16, Revision C.01,
 Gaussian 16:  ES64L-G16RevC.01  3-Jul-2019

 ----------------------------------------------------------------------
 # m062x 6-31g(d) scrf=(iefpcm,solvent=benzene) opt=(calcfc,maxcycles=5
 0,maxstep=10) freq=noraman
 ----------------------------------------------------------------------

 -----
 *****
 -----
 Symbolic Z-matrix:
 Charge =  0 Multiplicity = 1

 SCF Done:  E(RM062X) =  -117.831739861     A.U. after   11 cycles
 SCF Done:  E(RM062X) =  -117.831815790     A.U. after   10 cycles
 SCF Done:  E(RM062X) =  -117.832041739     A.U. after   10 cycles
 SCF Done:  E(RM062X) =  -117.833228928     A.U. after   10 cycles
 SCF Done:  E(RM062X) =  -117.803964831     A.U. after   11 cycles
 SCF Done:  E(RM062X) =  -117.834343747     A.U. after   10 cycles
 SCF Done:  E(RM062X) =  -117.835116141     A.U. after   11 cycles
 SCF Done:  E(RM062X) =  -117.835332787     A.U. after    9 cycles
 SCF Done:  E(RM062X) =  -117.835355685     A.U. after    9 cycles
 SCF Done:  E(RM062X) =  -117.835355790     A.U. after    8 cycles
 Optimization completed.
    -- Stationary point found.
 Normal termination of Gaussian 16 at Sat Dec  9 14:54:28 2023.

 --------------------------------------------------------------------
 #N Geom=AllCheck Guess=TCheck SCRF=Check GenChk RM062X/6-31G(d) Freq
 --------------------------------------------------------------------

 Structure from the checkpoint file:  "1a_gs_2_opt_hess.chk"
 -----
 *****
 -----
 Charge =  0 Multiplicity = 1

                         Standard orientation:
 ---------------------------------------------------------------------
 Center     Atomic      Atomic             Coordinates (Angstroms)
 Number     Number       Type             X           Y           Z
 ---------------------------------------------------------------------
      1          1           0       -2.240228    0.277296    0.000028
      2          6           0       -0.134335    0.459108   -0.000022
      3          1           0       -1.285909   -1.309632   -0.000024
      4          6           0       -1.276438   -0.222076    0.000003
      5          1           0       -0.167431    1.548315   -0.000002
      6          6           0        1.230552   -0.163218    0.000003
      7          1           0        1.804308    0.147598   -0.880150
      8          1           0        1.804449    0.148331    0.879799
      9          1           0        1.166133   -1.254794    0.000449
 ---------------------------------------------------------------------

 SCF Done:  E(RM062X) =  -117.835355790     A.U. after    1 cycles

 The electronic state is 1-A.
 Alpha  occ. eigenvalues --  -10.54684 -10.53674 -10.53259  -0.87986  -0.77025
 Alpha  occ. eigenvalues --   -0.62835  -0.53233  -0.48019  -0.47437  -0.42799
 Alpha  occ. eigenvalues --   -0.40067  -0.30830
 Alpha virt. eigenvalues --    0.07031   0.16128   0.18317   0.19998   0.22487
 Alpha virt. eigenvalues --    0.22982   0.24258   0.33450   0.42199   0.54389
 Alpha virt. eigenvalues --    0.57961   0.58436   0.66034   0.68410   0.71639

 Mulliken charges:
               1
     1  H    0.162029
     2  C   -0.090844
     3  H    0.156010
     4  C   -0.378047
     5  H    0.157664
     6  C   -0.525967
     7  H    0.174995
     8  H    0.174985
     9  H    0.169175
 Sum of Mulliken charges =   0.00000

 Dipole moment (field-independent basis, Debye):
    X=              0.3630    Y=              0.0947    Z=              0.0000  Tot=              0.3751
 Quadrupole moment (field-independent basis, Debye-Ang):
   XX=            -18.7935   YY=            -18.6316   ZZ=            -21.4451
   XY=              0.1546   XZ=             -0.0001   YZ=              0.0001

  Exact polarizability:      47.402       5.038      35.461      -0.001       0.000      20.410
 Approx polarizability:      46.700       7.387      36.466      -0.001       0.000      21.730

                      1                      2                      3
                      A                      A                      A
 Frequencies --    208.5332               427.8735               594.1972
 Red. masses --      1.1621                 1.9656                 1.1883
 Frc consts  --      0.0298                 0.2120                 0.2472
 IR Inten    --      0.5516                 1.0335                12.8374

                      4                      5                      6
                      A                      A                      A
 Frequencies --    944.7610               951.0887               960.7787
 Red. masses --      2.0390                 1.2314                 1.3261
 Frc consts  --      1.0723                 0.6563                 0.7212
 IR Inten    --      0.7492                 6.8047                49.1362

                      7                      8                      9
                      A                      A                      A
 Frequencies --   1041.4441              1085.3811              1202.5369
 Red. masses --      1.0551                 1.5403                 1.7965
 Frc consts  --      0.6743                 1.0691                 1.5307
 IR Inten    --     11.4286                 1.3783                 0.3760

                     10                     11                     12
                      A                      A                      A
 Frequencies --   1334.3389              1428.6405              1471.9898
 Red. masses --      1.2438                 1.2122                 1.2248
 Frc consts  --      1.3047                 1.4577                 1.5636
 IR Inten    --      0.2813                 1.5798                 1.1941

                     13                     14                     15
                      A                      A                      A
 Frequencies --   1507.5449              1520.4478              1767.7324
 Red. masses --      1.0443                 1.0526                 4.7512
 Frc consts  --      1.3983                 1.4336                 8.7476
 IR Inten    --      7.8195                12.8369                11.6325

                     16                     17                     18
                      A                      A                      A
 Frequencies --   3075.8960              3136.2099              3161.9974
 Red. masses --      1.0364                 1.1007                 1.1006
 Frc consts  --      5.7773                 6.3785                 6.4833
 IR Inten    --     22.9046                21.8010                 9.8710

                     19                     20                     21
                      A                      A                      A
 Frequencies --   3183.3344              3192.6225              3273.6071
 Red. masses --      1.0678                 1.0861                 1.1161
 Frc consts  --      6.3755                 6.5224                 7.0469
 IR Inten    --     29.7287                 7.7188                20.4703

 - Thermochemistry -
 -------------------
 Temperature   298.150 Kelvin.  Pressure   1.00000 Atm.
 Atom     1 has atomic number  1 and mass   1.00783

 Molecular mass:    42.04695 amu.
 Principal axes and moments of inertia in atomic units:
                           1         2         3
     Eigenvalues --    38.74503 193.40428 221.00167
           X            1.00000  -0.00314  -0.00000
           Y            0.00314   1.00000   0.00001
           Z            0.00000  -0.00001   1.00000
 This molecule is an asymmetric top.
 Rotational symmetry number  1.
 Rotational temperatures (Kelvin)      2.23548     0.44784     0.39192
 Rotational constants (GHZ):          46.57994     9.33144     8.16619
 Zero-point vibrational energy     212163.4 (Joules/Mol)
                                   50.70828 (Kcal/Mol)
 Warning -- explicit consideration of   3 degrees of freedom as
           vibrations may cause significant error
 Vibrational temperatures:    300.03   615.61   854.92  1359.30  1368.40
          (Kelvin)           1382.35  1498.41  1561.62  1730.18  1919.82
                             2055.49  2117.87  2169.02  2187.59  2543.37
                             4425.53  4512.31  4549.41  4580.11  4593.47
                             4709.99

 Zero-point correction=                           0.080809 (Hartree/Particle)
 Thermal correction to Energy=                    0.084875
 Thermal correction to Enthalpy=                  0.085819
 Thermal correction to Gibbs Free Energy=         0.055813
 Sum of electronic and zero-point Energies=           -117.754547
 Sum of electronic and thermal Energies=              -117.750481
 Sum of electronic and thermal Enthalpies=            -117.749536
 Sum of electronic and thermal Free Energies=         -117.779543

                     E (Thermal)             CV                S
                      KCal/Mol        Cal/Mol-Kelvin    Cal/Mol-Kelvin
 Total                   53.260             12.853             63.154
 Electronic               0.000              0.000              0.000
 Translational            0.889              2.981             37.135
 Rotational               0.889              2.981             22.031
 Vibrational             51.483              6.892              3.987
 Vibration     1          0.642              1.828              2.056
 Vibration     2          0.789              1.410              0.866
 Vibration     3          0.952              1.044              0.460

 Optimization completed.
    -- Stationary point found.
 Normal termination of Gaussian 16 at Sat Dec  9 14:54:37 2023.
