 Gaussian 16, Revision C.01,
 Gaussian 16:  ES64L-G16RevC.01  3-Jul-2019

 ----------------------------------------------------------------------
 # m062x 6-31g(d) scrf=(iefpcm,solvent=benzene) opt=(maxcycles=50,maxst
 ep=10) freq=noraman
 ----------------------------------------------------------------------

 -----
 *****
 -----
 Symbolic Z-matrix:
 Charge =  0 Multiplicity = 1

 SCF Done:  E(RM062X) =  -335.504636398     A.U. after   12 cycles
 SCF Done:  E(RM062X) =  -335.509331747     A.U. after   12 cycles
 SCF Done:  E(RM062X) =  -335.509934079     A.U. after   12 cycles
 SCF Done:  E(RM062X) =  -335.509947529     A.U. after   10 cycles
 SCF Done:  E(RM062X) =  -335.509948725     A.U. after    8 cycles
 Optimization completed.
    -- Stationary point found.
 Normal termination of Gaussian 16 at Mon Dec 11 14:57:22 2023.

 --------------------------------------------------------------------
 #N Geom=AllCheck Guess=TCheck SCRF=Check GenChk RM062X/6-31G(d) Freq
 --------------------------------------------------------------------

 Structure from the checkpoint file:  "2a_gs_2_opt_freq.chk"
 -----
 *****
 -----
 Charge =  0 Multiplicity = 1

                         Standard orientation:
 ---------------------------------------------------------------------
 Center     Atomic      Atomic             Coordinates (Angstroms)
 Number     Number       Type             X           Y           Z
 ---------------------------------------------------------------------
      1          6           0       -0.010702   -1.742424    0.000000
      2          7           0       -1.192753   -1.128775    0.000000
      3          6           0       -0.000000    0.804892    0.000000
      4          1           0       -0.014421   -2.826387    0.000000
      5          7           0        1.179502   -1.137381    0.000000
      6          7           0        1.184951    0.172687    0.000000
      7          7           0       -1.188040    0.184915    0.000000
      8          6           0        0.016990    2.299448    0.000000
      9          1           0       -1.003531    2.681543    0.000000
     10          1           0        0.547301    2.666612    0.882473
     11          1           0        0.547301    2.666612   -0.882473
 ---------------------------------------------------------------------

 SCF Done:  E(RM062X) =  -335.509948725     A.U. after    1 cycles

 The electronic state is 1-A'.
 Alpha  occ. eigenvalues --  -14.83976 -14.83874 -14.83599 -14.83549 -10.65171
 Alpha  occ. eigenvalues --  -10.64157 -10.56044  -1.21713  -1.12379  -1.00287
 Alpha  occ. eigenvalues --   -0.85617  -0.85125  -0.76125  -0.67110  -0.61053
 Alpha  occ. eigenvalues --   -0.57318  -0.53692  -0.49508  -0.48605  -0.44653
 Alpha  occ. eigenvalues --   -0.44057  -0.41721  -0.40864  -0.37697  -0.30567
 Alpha virt. eigenvalues --   -0.06300  -0.01949   0.14392   0.16152   0.17999
 Alpha virt. eigenvalues --    0.19059   0.22496   0.24188   0.25372   0.25842
 Alpha virt. eigenvalues --    0.35485   0.39904   0.42775   0.52469   0.55591

 Mulliken charges:
               1
     1  C    0.181089
     2  N   -0.217933
     3  C    0.423163
     4  H    0.233577
     5  N   -0.215322
     6  N   -0.251231
     7  N   -0.256979
     8  C   -0.527081
     9  H    0.207130
    10  H    0.211793
    11  H    0.211793
 Sum of Mulliken charges =  -0.00000

 Dipole moment (field-independent basis, Debye):
    X=              0.0877    Y=              0.8513    Z=              0.0000  Tot=              0.8558
 Quadrupole moment (field-independent basis, Debye-Ang):
   XX=            -50.1650   YY=            -32.1693   ZZ=            -38.6054
   XY=              0.2071   XZ=              0.0000   YZ=              0.0000

  Exact polarizability:      58.662       0.833      78.938      -0.000      -0.000      31.789
 Approx polarizability:      82.377       1.012      87.377       0.000       0.000      37.299

                      1                      2                      3
                     A"                     A"                     A'
 Frequencies --     46.3875               158.9765               361.0633
 Red. masses --      1.0733                 3.3400                 2.8526
 Frc consts  --      0.0014                 0.0497                 0.2191
 IR Inten    --      1.8235                19.4887                 6.1404

                      4                      5                      6
                     A"                     A"                     A'
 Frequencies --    364.1380               458.0186               616.4341
 Red. masses --     13.9041                 3.6281                 5.0906
 Frc consts  --      1.0862                 0.4484                 1.1397
 IR Inten    --      0.0035                26.0304                 2.1631

                      7                      8                      9
                     A'                     A"                     A'
 Frequencies --    662.4540               825.9030               876.2600
 Red. masses --     12.2883                 5.0622                 8.1316
 Frc consts  --      3.1773                 2.0344                 3.6787
 IR Inten    --      0.3373                 0.7055                 3.6722

                     10                     11                     12
                     A'                     A"                     A'
 Frequencies --    962.2554               967.3380              1046.3114
 Red. masses --      5.3298                 1.3112                 1.7370
 Frc consts  --      2.9076                 0.7229                 1.1204
 IR Inten    --     42.1358                 0.6118                17.6517

                     13                     14                     15
                     A"                     A'                     A'
 Frequencies --   1074.5861              1099.9016              1184.4512
 Red. masses --      1.6030                10.3219                 8.5765
 Frc consts  --      1.0906                 7.3573                 7.0891
 IR Inten    --     10.4823                 1.7765                12.4225

                     16                     17                     18
                     A'                     A'                     A'
 Frequencies --   1253.5091              1384.4886              1450.4429
 Red. masses --      1.7177                 2.3212                 1.8970
 Frc consts  --      1.5902                 2.6214                 2.3513
 IR Inten    --     13.2408                64.2296                64.1894

                     19                     20                     21
                     A'                     A"                     A'
 Frequencies --   1461.1594              1500.9352              1507.5184
 Red. masses --      1.9962                 1.0426                 1.2611
 Frc consts  --      2.5110                 1.3839                 1.6885
 IR Inten    --     11.8078                 9.8696                10.7757

                     22                     23                     24
                     A'                     A'                     A'
 Frequencies --   1583.9113              1624.2897              3106.7691
 Red. masses --     11.1720                 6.2461                 1.0367
 Frc consts  --     16.5136                 9.7092                 5.8957
 IR Inten    --     25.7728                 0.5778                 1.1500

                     25                     26                     27
                     A"                     A'                     A'
 Frequencies --   3176.9019              3216.0615              3274.4645
 Red. masses --      1.1017                 1.1039                 1.0943
 Frc consts  --      6.5512                 6.7269                 6.9133
 IR Inten    --      2.0528                 2.6567                 2.9259

 - Thermochemistry -
 -------------------
 Temperature   298.150 Kelvin.  Pressure   1.00000 Atm.
 Atom     1 has atomic number  6 and mass  12.00000

 Molecular mass:    96.04360 amu.
 Principal axes and moments of inertia in atomic units:
                           1         2         3
     Eigenvalues --   292.88322 626.50905 908.18123
           X            0.00873   0.99996   0.00000
           Y            0.99996  -0.00873   0.00000
           Z           -0.00000  -0.00000   1.00000
 This molecule is an asymmetric top.
 Rotational symmetry number  1.
 Rotational temperatures (Kelvin)      0.29573     0.13825     0.09537
 Rotational constants (GHZ):           6.16198     2.88063     1.98720
 Zero-point vibrational energy     210811.5 (Joules/Mol)
                                   50.38516 (Kcal/Mol)
 Warning -- explicit consideration of   6 degrees of freedom as
           vibrations may cause significant error
 Vibrational temperatures:     66.74   228.73   519.49   523.91   658.99
          (Kelvin)            886.91   953.12  1188.29  1260.74  1384.47
                             1391.78  1505.41  1546.09  1582.51  1704.16
                             1803.52  1991.97  2086.86  2102.28  2159.51
                             2168.98  2278.90  2336.99  4469.95  4570.85
                             4627.20  4711.22

 Zero-point correction=                           0.080294 (Hartree/Particle)
 Thermal correction to Energy=                    0.086194
 Thermal correction to Enthalpy=                  0.087138
 Thermal correction to Gibbs Free Energy=         0.049870
 Sum of electronic and zero-point Energies=           -335.429655
 Sum of electronic and thermal Energies=              -335.423755
 Sum of electronic and thermal Enthalpies=            -335.422811
 Sum of electronic and thermal Free Energies=         -335.460079

                     E (Thermal)             CV                S
                      KCal/Mol        Cal/Mol-Kelvin    Cal/Mol-Kelvin
 Total                   54.087             19.989             78.437
 Electronic               0.000              0.000              0.000
 Translational            0.889              2.981             39.598
 Rotational               0.889              2.981             26.613
 Vibrational             52.310             14.028             12.226
 Vibration     1          0.595              1.979              4.966
 Vibration     2          0.621              1.893              2.562
 Vibration     3          0.735              1.552              1.118
 Vibration     4          0.738              1.546              1.104
 Vibration     5          0.816              1.343              0.772
 Vibration     6          0.976              0.997              0.422

 Optimization completed.
    -- Stationary point found.
 Normal termination of Gaussian 16 at Mon Dec 11 14:57:39 2023.
