 Gaussian 16, Revision C.01,
 Gaussian 16:  ES64L-G16RevC.01  3-Jul-2019

 ----------------------------------------------------------------------
 # m062x 6-31g(d) scrf=(iefpcm,solvent=benzene) opt=(calcfc,maxcycles=5
 0,maxstep=10) freq=noraman
 ----------------------------------------------------------------------

 -----
 *****
 -----
 Symbolic Z-matrix:
 Charge =  0 Multiplicity = 1

 SCF Done:  E(RM062X) =  -335.504636398     A.U. after   12 cycles
 SCF Done:  E(RM062X) =  -335.509440503     A.U. after   12 cycles
 SCF Done:  E(RM062X) =  -335.509933099     A.U. after   13 cycles
 SCF Done:  E(RM062X) =  -335.509925992     A.U. after   15 cycles
 SCF Done:  E(RM062X) =  -335.509943595     A.U. after   14 cycles
 SCF Done:  E(RM062X) =  -335.509947131     A.U. after   12 cycles
 SCF Done:  E(RM062X) =  -335.509948334     A.U. after   11 cycles
 SCF Done:  E(RM062X) =  -335.509948510     A.U. after   10 cycles
 SCF Done:  E(RM062X) =  -335.509948518     A.U. after    8 cycles
 Optimization completed.
    -- Stationary point found.
 Normal termination of Gaussian 16 at Sat Dec  9 14:56:27 2023.

 --------------------------------------------------------------------
 #N Geom=AllCheck Guess=TCheck SCRF=Check GenChk RM062X/6-31G(d) Freq
 --------------------------------------------------------------------

 Structure from the checkpoint file:  "2a_gs_2_opt_hess.chk"
 -----
 *****
 -----
 Charge =  0 Multiplicity = 1

                         Standard orientation:
 ---------------------------------------------------------------------
 Center     Atomic      Atomic             Coordinates (Angstroms)
 Number     Number       Type             X           Y           Z
 ---------------------------------------------------------------------
      1          6           0       -1.742519   -0.004694    0.000040
      2          7           0       -1.139885    1.182308    0.000001
      3          6           0        0.804878    0.007834   -0.000033
      4          1           0       -2.826471   -0.011380    0.000084
      5          7           0       -1.126323   -1.189829    0.000002
      6          7           0        0.183126   -1.183373   -0.000039
      7          7           0        0.174432    1.189592   -0.000039
      8          6           0        2.299553    0.003611    0.000026
      9          1           0        2.673101    1.027277   -0.000886
     10          1           0        2.671176   -0.522788    0.882988
     11          1           0        2.671270   -0.524503   -0.881858
 ---------------------------------------------------------------------

 SCF Done:  E(RM062X) =  -335.509948518     A.U. after    1 cycles

 The electronic state is 1-A.
 Alpha  occ. eigenvalues --  -14.83981 -14.83865 -14.83607 -14.83539 -10.65170
 Alpha  occ. eigenvalues --  -10.64156 -10.56044  -1.21712  -1.12377  -1.00287
 Alpha  occ. eigenvalues --   -0.85619  -0.85123  -0.76124  -0.67109  -0.61052
 Alpha  occ. eigenvalues --   -0.57317  -0.53692  -0.49506  -0.48605  -0.44652
 Alpha  occ. eigenvalues --   -0.44057  -0.41719  -0.40863  -0.37697  -0.30565
 Alpha virt. eigenvalues --   -0.06298  -0.01947   0.14392   0.16151   0.18006
 Alpha virt. eigenvalues --    0.19055   0.22495   0.24193   0.25360   0.25844
 Alpha virt. eigenvalues --    0.35484   0.39910   0.42776   0.52464   0.55592

 Mulliken charges:
               1
     1  C    0.181111
     2  N   -0.218098
     3  C    0.423157
     4  H    0.233583
     5  N   -0.215200
     6  N   -0.250941
     7  N   -0.257256
     8  C   -0.527047
     9  H    0.207145
    10  H    0.211781
    11  H    0.211764
 Sum of Mulliken charges =  -0.00000

 Dipole moment (field-independent basis, Debye):
    X=              0.8522    Y=             -0.0842    Z=              0.0004  Tot=              0.8564
 Quadrupole moment (field-independent basis, Debye-Ang):
   XX=            -32.1654   YY=            -50.1674   ZZ=            -38.6057
   XY=             -0.0414   XZ=              0.0003   YZ=              0.0000

  Exact polarizability:      78.953      -0.655      58.648       0.001      -0.000      31.789
 Approx polarizability:      87.394      -0.970      82.354       0.001      -0.000      37.299

                      1                      2                      3
                      A                      A                      A
 Frequencies --     45.0585               158.7751               360.6848
 Red. masses --      1.0721                 3.3522                 2.8501
 Frc consts  --      0.0013                 0.0498                 0.2185
 IR Inten    --      1.7723                19.5487                 6.1495

                      4                      5                      6
                      A                      A                      A
 Frequencies --    364.1107               457.9851               616.3606
 Red. masses --     13.9056                 3.6279                 5.0901
 Frc consts  --      1.0862                 0.4483                 1.1393
 IR Inten    --      0.0012                26.0237                 2.1621

                      7                      8                      9
                      A                      A                      A
 Frequencies --    662.4378               825.8974               876.2088
 Red. masses --     12.2886                 5.0630                 8.1452
 Frc consts  --      3.1772                 2.0348                 3.6844
 IR Inten    --      0.3373                 0.7056                 3.6743

                     10                     11                     12
                      A                      A                      A
 Frequencies --    962.0402               967.3180              1046.0068
 Red. masses --      5.2966                 1.3111                 1.7392
 Frc consts  --      2.8883                 0.7228                 1.1212
 IR Inten    --     41.9102                 0.6108                17.8532

                     13                     14                     15
                      A                      A                      A
 Frequencies --   1074.5750              1100.0173              1184.5851
 Red. masses --      1.6029                10.3659                 8.5679
 Frc consts  --      1.0905                 7.3902                 7.0836
 IR Inten    --     10.4912                 1.7721                12.4242

                     16                     17                     18
                      A                      A                      A
 Frequencies --   1253.4031              1384.3788              1450.4215
 Red. masses --      1.7187                 2.3170                 1.9075
 Frc consts  --      1.5908                 2.6163                 2.3643
 IR Inten    --     13.2087                64.0300                64.5070

                     19                     20                     21
                      A                      A                      A
 Frequencies --   1461.0561              1500.7617              1507.1104
 Red. masses --      1.9927                 1.0426                 1.2604
 Frc consts  --      2.5063                 1.3836                 1.6867
 IR Inten    --     11.5719                 9.8748                10.8228

                     22                     23                     24
                      A                      A                      A
 Frequencies --   1584.1976              1624.4420              3106.7099
 Red. masses --     11.0362                 6.2535                 1.0368
 Frc consts  --     16.3188                 9.7226                 5.8956
 IR Inten    --     25.6425                 0.7797                 1.1438

                     25                     26                     27
                      A                      A                      A
 Frequencies --   3176.7274              3216.2105              3274.4151
 Red. masses --      1.1017                 1.1038                 1.0944
 Frc consts  --      6.5505                 6.7273                 6.9131
 IR Inten    --      2.0587                 2.6493                 2.9240

 - Thermochemistry -
 -------------------
 Temperature   298.150 Kelvin.  Pressure   1.00000 Atm.
 Atom     1 has atomic number  6 and mass  12.00000

 Molecular mass:    96.04360 amu.
 Principal axes and moments of inertia in atomic units:
                           1         2         3
     Eigenvalues --   292.86672 626.53881 908.19575
           X            1.00000  -0.00022   0.00000
           Y            0.00022   1.00000   0.00000
           Z           -0.00000  -0.00000   1.00000
 This molecule is an asymmetric top.
 Rotational symmetry number  1.
 Rotational temperatures (Kelvin)      0.29575     0.13824     0.09537
 Rotational constants (GHZ):           6.16233     2.88049     1.98717
 Zero-point vibrational energy     210793.3 (Joules/Mol)
                                   50.38082 (Kcal/Mol)
 Warning -- explicit consideration of   6 degrees of freedom as
           vibrations may cause significant error
 Vibrational temperatures:     64.83   228.44   518.94   523.87   658.94
          (Kelvin)            886.81   953.10  1188.28  1260.67  1384.16
                             1391.75  1504.97  1546.07  1582.68  1704.35
                             1803.37  1991.81  2086.83  2102.13  2159.26
                             2168.40  2279.31  2337.21  4469.86  4570.60
                             4627.41  4711.15

 Zero-point correction=                           0.080287 (Hartree/Particle)
 Thermal correction to Energy=                    0.086191
 Thermal correction to Enthalpy=                  0.087135
 Thermal correction to Gibbs Free Energy=         0.049837
 Sum of electronic and zero-point Energies=           -335.429662
 Sum of electronic and thermal Energies=              -335.423758
 Sum of electronic and thermal Enthalpies=            -335.422814
 Sum of electronic and thermal Free Energies=         -335.460111

                     E (Thermal)             CV                S
                      KCal/Mol        Cal/Mol-Kelvin    Cal/Mol-Kelvin
 Total                   54.085             19.992             78.499
 Electronic               0.000              0.000              0.000
 Translational            0.889              2.981             39.598
 Rotational               0.889              2.981             26.613
 Vibrational             52.308             14.030             12.288
 Vibration     1          0.595              1.979              5.023
 Vibration     2          0.621              1.893              2.564
 Vibration     3          0.735              1.553              1.119
 Vibration     4          0.738              1.546              1.104
 Vibration     5          0.816              1.343              0.772
 Vibration     6          0.976              0.997              0.422

 Optimization completed.
    -- Stationary point found.
 Normal termination of Gaussian 16 at Sat Dec  9 14:56:48 2023.
