 Gaussian 16, Revision C.01,
 Gaussian 16:  ES64L-G16RevC.01  3-Jul-2019

 ----------------------------------------------------------------------
 # m062x 6-31g(d) scrf=(iefpcm,solvent=benzene) opt=(maxcycles=50,maxst
 ep=10) freq=noraman
 ----------------------------------------------------------------------

 -----
 *****
 -----
 Symbolic Z-matrix:
 Charge =  0 Multiplicity = 1

 SCF Done:  E(RM062X) =  -211.238371417     A.U. after   12 cycles
 SCF Done:  E(RM062X) =  -211.240929191     A.U. after   10 cycles
 SCF Done:  E(RM062X) =  -211.241302597     A.U. after   10 cycles
 SCF Done:  E(RM062X) =  -211.241323212     A.U. after    9 cycles
 SCF Done:  E(RM062X) =  -211.241325694     A.U. after    8 cycles
 Optimization completed.
    -- Stationary point found.
 Normal termination of Gaussian 16 at Mon Dec 11 15:00:11 2023.

 --------------------------------------------------------------------
 #N Geom=AllCheck Guess=TCheck SCRF=Check GenChk RM062X/6-31G(d) Freq
 --------------------------------------------------------------------

 Structure from the checkpoint file:  "2g_gs_2_opt_freq.chk"
 -----
 *****
 -----
 Charge =  0 Multiplicity = 1

                         Standard orientation:
 ---------------------------------------------------------------------
 Center     Atomic      Atomic             Coordinates (Angstroms)
 Number     Number       Type             X           Y           Z
 ---------------------------------------------------------------------
      1          6           0       -1.015495    0.398154   -0.000028
      2          1           0        2.443752   -1.367734   -0.000009
      3          6           0        2.426796   -0.282867    0.000011
      4          1           0        3.371593    0.248262    0.000038
      5          7           0        0.040726   -0.313007   -0.000028
      6          6           0        1.267003    0.372159    0.000005
      7          1           0        1.236437    1.466692    0.000028
      8          1           0       -0.958713    1.497570   -0.000008
      9          6           0       -2.379670   -0.229049    0.000011
     10          1           0       -3.166692    0.526603   -0.000798
     11          1           0       -2.501344   -0.866052   -0.881130
     12          1           0       -2.501915   -0.864670    0.882079
 ---------------------------------------------------------------------

 SCF Done:  E(RM062X) =  -211.241325694     A.U. after    1 cycles

 The electronic state is 1-A.
 Alpha  occ. eigenvalues --  -14.75628 -10.59612 -10.57213 -10.54325 -10.53870
 Alpha  occ. eigenvalues --   -1.03739  -0.86821  -0.80919  -0.67358  -0.63543
 Alpha  occ. eigenvalues --   -0.56622  -0.52148  -0.49362  -0.46253  -0.44470
 Alpha  occ. eigenvalues --   -0.43568  -0.41804  -0.32363  -0.29297
 Alpha virt. eigenvalues --    0.00986   0.11045   0.15315   0.16919   0.18738
 Alpha virt. eigenvalues --    0.20752   0.23154   0.23415   0.25943   0.29470
 Alpha virt. eigenvalues --    0.31257   0.38800   0.45925   0.55975   0.57748

 Mulliken charges:
               1
     1  C    0.052632
     2  H    0.176745
     3  C   -0.400802
     4  H    0.171155
     5  N   -0.397558
     6  C    0.056918
     7  H    0.145756
     8  H    0.152202
     9  C   -0.530497
    10  H    0.174646
    11  H    0.199400
    12  H    0.199404
 Sum of Mulliken charges =   0.00000

 Dipole moment (field-independent basis, Debye):
    X=             -0.9795    Y=              1.4602    Z=              0.0002  Tot=              1.7583
 Quadrupole moment (field-independent basis, Debye-Ang):
   XX=            -25.6513   YY=            -29.9721   ZZ=            -32.5827
   XY=             -0.0647   XZ=             -0.0003   YZ=             -0.0000

  Exact polarizability:      96.629      -9.519      51.294      -0.001      -0.000      27.186
 Approx polarizability:      92.656     -14.091      55.554      -0.001       0.000      30.733

 ******    1 imaginary frequencies (negative Signs) ******

                      1                      2                      3
                      A                      A                      A
 Frequencies --   -181.5455               127.9976               219.6145
 Red. masses --      1.1350                 3.2947                 2.6947
 Frc consts  --      0.0220                 0.0318                 0.0766
 IR Inten    --      7.5013                 8.5487                 3.1950

                      4                      5                      6
                      A                      A                      A
 Frequencies --    265.2678               496.3701               523.1783
 Red. masses --      2.0469                 2.3888                 3.5578
 Frc consts  --      0.0849                 0.3468                 0.5738
 IR Inten    --      0.6531                 0.3638                 2.6682

                      7                      8                      9
                      A                      A                      A
 Frequencies --    724.4129               889.4770               927.8117
 Red. masses --      1.3562                 1.2583                 1.6202
 Frc consts  --      0.4193                 0.5865                 0.8217
 IR Inten    --      0.2842                11.8985                 4.4817

                     10                     11                     12
                      A                      A                      A
 Frequencies --    951.1643              1028.2739              1037.6783
 Red. masses --      1.3601                 1.1805                 1.8527
 Frc consts  --      0.7250                 0.7354                 1.1754
 IR Inten    --     51.2744                14.4808                 0.0691

                     13                     14                     15
                      A                      A                      A
 Frequencies --   1105.3144              1131.2935              1221.0864
 Red. masses --      1.6209                 2.2632                 2.9304
 Frc consts  --      1.1668                 1.7066                 2.5744
 IR Inten    --      0.9573                12.7753                43.9153

                     16                     17                     18
                      A                      A                      A
 Frequencies --   1346.3043              1396.5024              1430.3855
 Red. masses --      1.2026                 1.2106                 1.2491
 Frc consts  --      1.2843                 1.3910                 1.5057
 IR Inten    --      4.4972                 5.9340                19.1159

                     19                     20                     21
                      A                      A                      A
 Frequencies --   1459.4639              1506.5075              1507.8821
 Red. masses --      1.2668                 1.0611                 1.0445
 Frc consts  --      1.5898                 1.4189                 1.3992
 IR Inten    --      5.0116                 6.0974                 8.6267

                     22                     23                     24
                      A                      A                      A
 Frequencies --   1750.2111              1772.1767              3058.1549
 Red. masses --      4.9570                 7.9199                 1.0857
 Frc consts  --      8.9465                14.6549                 5.9826
 IR Inten    --     67.8156                83.0978                58.0420

                     25                     26                     27
                      A                      A                      A
 Frequencies --   3094.1344              3124.6289              3161.4623
 Red. masses --      1.0374                 1.0881                 1.1012
 Frc consts  --      5.8516                 6.2592                 6.4847
 IR Inten    --      7.2496                44.0333                 6.6417

                     28                     29                     30
                      A                      A                      A
 Frequencies --   3191.9774              3212.5416              3305.4430
 Red. masses --      1.1030                 1.0632                 1.1184
 Frc consts  --      6.6213                 6.4647                 7.1996
 IR Inten    --     21.0308                 1.0355                 6.9159

 - Thermochemistry -
 -------------------
 Temperature   298.150 Kelvin.  Pressure   1.00000 Atm.
 Atom     1 has atomic number  6 and mass  12.00000

 Molecular mass:    69.05785 amu.
 Principal axes and moments of inertia in atomic units:
                           1         2         3
     Eigenvalues --    58.03003 765.83963 812.68067
           X            1.00000   0.00258  -0.00000
           Y           -0.00258   1.00000   0.00000
           Z            0.00000  -0.00000   1.00000
 This molecule is an asymmetric top.
 Rotational symmetry number  1.
 Rotational temperatures (Kelvin)      1.49257     0.11310     0.10658
 Rotational constants (GHZ):          31.10013     2.35655     2.22073
    1 imaginary frequencies ignored.
 Zero-point vibrational energy     268960.7 (Joules/Mol)
                                   64.28315 (Kcal/Mol)
 Warning -- explicit consideration of   5 degrees of freedom as
           vibrations may cause significant error
 Vibrational temperatures:    184.16   315.98   381.66   714.17   752.74
          (Kelvin)           1042.27  1279.76  1334.91  1368.51  1479.46
                             1492.99  1590.30  1627.68  1756.87  1937.03
                             2009.26  2058.01  2099.84  2167.53  2169.51
                             2518.16  2549.77  4400.00  4451.77  4495.64
                             4548.64  4592.54  4622.13  4755.80

 Zero-point correction=                           0.102442 (Hartree/Particle)
 Thermal correction to Energy=                    0.107808
 Thermal correction to Enthalpy=                  0.108752
 Thermal correction to Gibbs Free Energy=         0.074246
 Sum of electronic and zero-point Energies=           -211.138884
 Sum of electronic and thermal Energies=              -211.133517
 Sum of electronic and thermal Enthalpies=            -211.132573
 Sum of electronic and thermal Free Energies=         -211.167080

                     E (Thermal)             CV                S
                      KCal/Mol        Cal/Mol-Kelvin    Cal/Mol-Kelvin
 Total                   67.651             18.113             72.625
 Electronic               0.000              0.000              0.000
 Translational            0.889              2.981             38.614
 Rotational               0.889              2.981             25.094
 Vibrational             65.873             12.152              8.916
 Vibration     1          0.611              1.925              2.976
 Vibration     2          0.647              1.811              1.962
 Vibration     3          0.671              1.737              1.627
 Vibration     4          0.852              1.258              0.667
 Vibration     5          0.878              1.199              0.603

 Optimization completed.
    -- Stationary point found.
 Normal termination of Gaussian 16 at Mon Dec 11 15:00:27 2023.
