 Gaussian 16, Revision C.01,
 Gaussian 16:  ES64L-G16RevC.01  3-Jul-2019

 ----------------------------------------------------------------------
 # m062x 6-31g(d) scrf=(iefpcm,solvent=benzene) opt=(calcfc,maxcycles=5
 0,maxstep=10) freq=noraman
 ----------------------------------------------------------------------

 -----
 *****
 -----
 Symbolic Z-matrix:
 Charge =  0 Multiplicity = 1

 SCF Done:  E(RM062X) =  -211.238371417     A.U. after   12 cycles
 SCF Done:  E(RM062X) =  -211.240947456     A.U. after   12 cycles
 SCF Done:  E(RM062X) =  -211.241928331     A.U. after   12 cycles
 SCF Done:  E(RM062X) =  -211.242648273     A.U. after   13 cycles
 SCF Done:  E(RM062X) =  -211.242740522     A.U. after   11 cycles
 SCF Done:  E(RM062X) =  -211.242788395     A.U. after   10 cycles
 SCF Done:  E(RM062X) =  -211.242725206     A.U. after   12 cycles
 SCF Done:  E(RM062X) =  -211.243182924     A.U. after   11 cycles
 SCF Done:  E(RM062X) =  -211.243499671     A.U. after   12 cycles
 SCF Done:  E(RM062X) =  -211.243639047     A.U. after   11 cycles
 SCF Done:  E(RM062X) =  -211.243695818     A.U. after   11 cycles
 SCF Done:  E(RM062X) =  -211.243705654     A.U. after    9 cycles
 SCF Done:  E(RM062X) =  -211.243707245     A.U. after    8 cycles
 SCF Done:  E(RM062X) =  -211.243707282     A.U. after    7 cycles
 Optimization completed.
    -- Stationary point found.
 Normal termination of Gaussian 16 at Sat Dec  9 14:58:34 2023.

 --------------------------------------------------------------------
 #N Geom=AllCheck Guess=TCheck SCRF=Check GenChk RM062X/6-31G(d) Freq
 --------------------------------------------------------------------

 Structure from the checkpoint file:  "2g_gs_2_opt_hess.chk"
 -----
 *****
 -----
 Charge =  0 Multiplicity = 1

                         Standard orientation:
 ---------------------------------------------------------------------
 Center     Atomic      Atomic             Coordinates (Angstroms)
 Number     Number       Type             X           Y           Z
 ---------------------------------------------------------------------
      1          6           0       -1.016471    0.384493    0.000000
      2          1           0        2.451787   -1.360497   -0.000002
      3          6           0        2.429239   -0.275728    0.000000
      4          1           0        3.371358    0.260158    0.000004
      5          7           0        0.043679   -0.321210   -0.000000
      6          6           0        1.266156    0.373040   -0.000001
      7          1           0        1.229387    1.467153    0.000001
      8          1           0       -0.968648    1.484811    0.000002
      9          6           0       -2.379026   -0.228497    0.000001
     10          1           0       -2.943995    0.096740   -0.880486
     11          1           0       -2.300999   -1.316523    0.000028
     12          1           0       -2.944033    0.096783    0.880450
 ---------------------------------------------------------------------

 SCF Done:  E(RM062X) =  -211.243707282     A.U. after    1 cycles

 The electronic state is 1-A.
 Alpha  occ. eigenvalues --  -14.75742 -10.59598 -10.57208 -10.54351 -10.53900
 Alpha  occ. eigenvalues --   -1.03771  -0.86913  -0.81055  -0.67323  -0.63598
 Alpha  occ. eigenvalues --   -0.56698  -0.52191  -0.49409  -0.46164  -0.44530
 Alpha  occ. eigenvalues --   -0.43526  -0.41959  -0.32448  -0.29387
 Alpha virt. eigenvalues --    0.01293   0.11467   0.15671   0.16920   0.18937
 Alpha virt. eigenvalues --    0.21532   0.21636   0.22270   0.24480   0.29483
 Alpha virt. eigenvalues --    0.31916   0.38773   0.47897   0.55940   0.57898

 Mulliken charges:
               1
     1  C    0.077800
     2  H    0.177234
     3  C   -0.400315
     4  H    0.171372
     5  N   -0.401983
     6  C    0.055761
     7  H    0.147200
     8  H    0.146421
     9  C   -0.540833
    10  H    0.186644
    11  H    0.194056
    12  H    0.186643
 Sum of Mulliken charges =  -0.00000

 Dipole moment (field-independent basis, Debye):
    X=             -0.9929    Y=              1.5842    Z=             -0.0000  Tot=              1.8697
 Quadrupole moment (field-independent basis, Debye-Ang):
   XX=            -25.4797   YY=            -30.0749   ZZ=            -32.6395
   XY=             -0.3587   XZ=              0.0000   YZ=              0.0000

  Exact polarizability:      98.256     -10.491      51.137       0.000      -0.000      27.262
 Approx polarizability:      94.465     -15.140      55.416       0.000      -0.000      30.809

                      1                      2                      3
                      A                      A                      A
 Frequencies --    114.9456               193.4737               222.4010
 Red. masses --      1.9732                 1.5120                 2.6585
 Frc consts  --      0.0154                 0.0333                 0.0775
 IR Inten    --      5.3008                 3.6566                 3.6474

                      4                      5                      6
                      A                      A                      A
 Frequencies --    256.0336               498.2215               524.3796
 Red. masses --      2.0044                 2.3261                 3.5942
 Frc consts  --      0.0774                 0.3402                 0.5823
 IR Inten    --      1.8779                 1.2385                 2.3454

                      7                      8                      9
                      A                      A                      A
 Frequencies --    726.3915               906.5395               910.0632
 Red. masses --      1.3680                 1.5926                 1.2208
 Frc consts  --      0.4253                 0.7711                 0.5957
 IR Inten    --      0.1475                10.6254                 9.4585

                     10                     11                     12
                      A                      A                      A
 Frequencies --    952.6086              1016.4234              1027.8434
 Red. masses --      1.3600                 1.8556                 1.1892
 Frc consts  --      0.7271                 1.1295                 0.7402
 IR Inten    --     50.3777                 5.1319                14.2332

                     13                     14                     15
                      A                      A                      A
 Frequencies --   1110.6945              1147.7200              1226.9152
 Red. masses --      1.6435                 2.2842                 2.8352
 Frc consts  --      1.1945                 1.7727                 2.5146
 IR Inten    --      0.7898                 0.1288                31.5658

                     16                     17                     18
                      A                      A                      A
 Frequencies --   1345.6827              1399.1061              1427.8623
 Red. masses --      1.2049                 1.2082                 1.3233
 Frc consts  --      1.2855                 1.3935                 1.5896
 IR Inten    --      4.1479                 8.2444                15.4540

                     19                     20                     21
                      A                      A                      A
 Frequencies --   1458.3787              1497.8975              1501.2087
 Red. masses --      1.2690                 1.0551                 1.0448
 Frc consts  --      1.5902                 1.3947                 1.3873
 IR Inten    --      3.0218                20.4907                10.4010

                     22                     23                     24
                      A                      A                      A
 Frequencies --   1751.1739              1779.3991              3053.9731
 Red. masses --      4.8804                 7.5164                 1.0847
 Frc consts  --      8.8179                14.0219                 5.9604
 IR Inten    --     58.8183               100.4984                58.2241

                     25                     26                     27
                      A                      A                      A
 Frequencies --   3083.3245              3126.3708              3143.6417
 Red. masses --      1.0388                 1.0881                 1.1001
 Frc consts  --      5.8188                 6.2662                 6.4054
 IR Inten    --     12.6889                44.0660                11.0195

                     28                     29                     30
                      A                      A                      A
 Frequencies --   3198.1925              3212.4356              3305.2914
 Red. masses --      1.1025                 1.0633                 1.1184
 Frc consts  --      6.6441                 6.4648                 7.1989
 IR Inten    --      8.4695                 1.0147                 6.8241

 - Thermochemistry -
 -------------------
 Temperature   298.150 Kelvin.  Pressure   1.00000 Atm.
 Atom     1 has atomic number  6 and mass  12.00000

 Molecular mass:    69.05785 amu.
 Principal axes and moments of inertia in atomic units:
                           1         2         3
     Eigenvalues --    57.39611 766.64667 812.88264
           X            1.00000   0.00172   0.00000
           Y           -0.00172   1.00000   0.00000
           Z           -0.00000  -0.00000   1.00000
 This molecule is an asymmetric top.
 Rotational symmetry number  1.
 Rotational temperatures (Kelvin)      1.50906     0.11298     0.10655
 Rotational constants (GHZ):          31.44361     2.35407     2.22017
 Zero-point vibrational energy     269869.1 (Joules/Mol)
                                   64.50027 (Kcal/Mol)
 Warning -- explicit consideration of   6 degrees of freedom as
           vibrations may cause significant error
 Vibrational temperatures:    165.38   278.37   319.99   368.38   716.83
          (Kelvin)            754.47  1045.12  1304.31  1309.38  1370.59
                             1462.41  1478.84  1598.04  1651.31  1765.26
                             1936.14  2013.00  2054.38  2098.28  2155.14
                             2159.90  2519.55  2560.16  4393.99  4436.22
                             4498.15  4523.00  4601.49  4621.98  4755.58

 Zero-point correction=                           0.102788 (Hartree/Particle)
 Thermal correction to Energy=                    0.108755
 Thermal correction to Enthalpy=                  0.109699
 Thermal correction to Gibbs Free Energy=         0.074042
 Sum of electronic and zero-point Energies=           -211.140920
 Sum of electronic and thermal Energies=              -211.134952
 Sum of electronic and thermal Enthalpies=            -211.134008
 Sum of electronic and thermal Free Energies=         -211.169665

                     E (Thermal)             CV                S
                      KCal/Mol        Cal/Mol-Kelvin    Cal/Mol-Kelvin
 Total                   68.245             19.979             75.048
 Electronic               0.000              0.000              0.000
 Translational            0.889              2.981             38.614
 Rotational               0.889              2.981             25.084
 Vibrational             66.467             14.017             11.349
 Vibration     1          0.608              1.937              3.184
 Vibration     2          0.635              1.849              2.194
 Vibration     3          0.648              1.807              1.939
 Vibration     4          0.666              1.753              1.689
 Vibration     5          0.854              1.254              0.663
 Vibration     6          0.879              1.196              0.600

 Optimization completed.
    -- Stationary point found.
 Normal termination of Gaussian 16 at Sat Dec  9 14:58:49 2023.
