 Gaussian 16, Revision C.01,
 Gaussian 16:  ES64L-G16RevC.01  3-Jul-2019

 ----------------------------------------------------------------------
 # m062x 6-31g(d) scrf=(iefpcm,solvent=benzene) opt=(maxcycles=50,maxst
 ep=10) freq=noraman
 ----------------------------------------------------------------------

 ----------
 Structure2
 ----------
 Symbolic Z-matrix:
 Charge =  0 Multiplicity = 1

 SCF Done:  E(RM062X) =  -1875.76738203     A.U. after   13 cycles
 SCF Done:  E(RM062X) =  -1875.77434690     A.U. after   12 cycles
 SCF Done:  E(RM062X) =  -1875.77919744     A.U. after   12 cycles
 SCF Done:  E(RM062X) =  -1875.77885982     A.U. after   12 cycles
 SCF Done:  E(RM062X) =  -1875.78131916     A.U. after   12 cycles
 SCF Done:  E(RM062X) =  -1875.78172617     A.U. after   11 cycles
 SCF Done:  E(RM062X) =  -1875.78184298     A.U. after   11 cycles
 SCF Done:  E(RM062X) =  -1875.78199661     A.U. after   10 cycles
 SCF Done:  E(RM062X) =  -1875.78208281     A.U. after   10 cycles
 SCF Done:  E(RM062X) =  -1875.78211293     A.U. after   10 cycles
 SCF Done:  E(RM062X) =  -1875.78238910     A.U. after    9 cycles
 SCF Done:  E(RM062X) =  -1875.78239148     A.U. after    8 cycles
 SCF Done:  E(RM062X) =  -1875.78239257     A.U. after    8 cycles
 SCF Done:  E(RM062X) =  -1875.78239372     A.U. after    8 cycles
 SCF Done:  E(RM062X) =  -1875.78239424     A.U. after    8 cycles
 SCF Done:  E(RM062X) =  -1875.78239424     A.U. after    7 cycles
 SCF Done:  E(RM062X) =  -1875.78239425     A.U. after    7 cycles
 SCF Done:  E(RM062X) =  -1875.78239436     A.U. after    7 cycles
 SCF Done:  E(RM062X) =  -1875.78239437     A.U. after    6 cycles
 Optimization completed.
    -- Stationary point found.
 Normal termination of Gaussian 16 at Mon Dec 11 14:18:23 2023.

 --------------------------------------------------------------------
 #N Geom=AllCheck Guess=TCheck SCRF=Check GenChk RM062X/6-31G(d) Freq
 --------------------------------------------------------------------

 Structure from the checkpoint file:  "ricci_OPLS3e_1_opt_freq.chk"
 ----------
 Structure2
 ----------
 Charge =  0 Multiplicity = 1

                         Standard orientation:
 ---------------------------------------------------------------------
 Center     Atomic      Atomic             Coordinates (Angstroms)
 Number     Number       Type             X           Y           Z
 ---------------------------------------------------------------------
      1          6           0       -2.966868    0.998909   -0.019188
      2          6           0       -3.132958    0.188929   -1.348190
      3          6           0       -2.975051   -1.285515   -0.944775
      4          7           0       -1.577141    1.384405    0.188945
      5          1           0       -3.561088    1.914747   -0.021324
      6          1           0       -4.159409    0.358630   -1.701425
      7          8           0       -2.195932    0.511929   -2.345912
      8          1           0       -1.923294   -1.584070   -1.046941
      9          1           0       -3.564935   -1.954750   -1.576425
     10          6           0       -3.394795    0.000982    1.028972
     11          6           0       -3.399481   -1.293318    0.503260
     12          6           0       -3.752464   -2.370409    1.310019
     13          6           0       -4.090866   -2.133914    2.641781
     14          6           0       -4.077478   -0.838837    3.164537
     15          6           0       -3.726696    0.241922    2.357704
     16          1           0       -3.765406   -3.380239    0.909946
     17          1           0       -4.371130   -2.966205    3.280157
     18          1           0       -4.347395   -0.673866    4.202786
     19          1           0       -3.717555    1.253210    2.754881
     20          1           0       -2.286592    1.459184   -2.551291
     21          1           0       -0.986241    0.705873    0.658080
     22          6           0       -0.988467    2.418773   -0.430648
     23         16           0       -1.827286    3.662610   -1.205652
     24          7           0        0.378931    2.443830   -0.373925
     25          1           0        0.791827    3.305103   -0.711765
     26          6           0        2.940942   -0.892686   -0.138020
     27          6           0        1.748514   -0.968225   -0.847063
     28          6           0        0.891345    0.123172   -0.942265
     29          6           0        1.219505    1.308602   -0.279075
     30          6           0        2.412597    1.400211    0.438696
     31          6           0        3.266164    0.305066    0.491580
     32          1           0        3.610814   -1.743476   -0.087817
     33          6           0        1.343586   -2.245608   -1.530456
     34          1           0       -0.016709    0.070443   -1.543433
     35          1           0        2.668490    2.324361    0.946967
     36          6           0        4.529729    0.390272    1.303673
     37          9           0        0.325522   -2.837081   -0.879854
     38          9           0        0.924028   -2.021585   -2.781012
     39          9           0        2.347230   -3.127895   -1.583930
     40          9           0        4.329329   -0.025658    2.562882
     41          9           0        5.498607   -0.375334    0.785826
     42          9           0        4.990460    1.646026    1.371303
 ---------------------------------------------------------------------

 SCF Done:  E(RM062X) =  -1875.78239437     A.U. after    1 cycles

 The electronic state is 1-A.
 Alpha  occ. eigenvalues --  -89.87408 -25.29813 -25.29668 -25.29577 -25.29295
 Alpha  occ. eigenvalues --  -25.29282 -25.29048 -19.64744 -14.81874 -14.81442
 Alpha  occ. eigenvalues --  -10.81319 -10.81292 -10.68528 -10.63379 -10.60873
 Alpha  occ. eigenvalues --  -10.60220 -10.60176 -10.59944 -10.59469 -10.59427
 Alpha  occ. eigenvalues --  -10.59116 -10.56457 -10.56239 -10.56109 -10.55956
 Alpha  occ. eigenvalues --  -10.55776 -10.55757 -10.55370  -8.22126  -6.14256
 Alpha  occ. eigenvalues --   -6.13806  -6.13598  -1.46693  -1.46681  -1.37515
 Alpha  occ. eigenvalues --   -1.37504  -1.37022  -1.36988  -1.15636  -1.12632
 Alpha  occ. eigenvalues --   -1.05232  -1.00561  -0.98058  -0.92388  -0.91636
 Alpha  occ. eigenvalues --   -0.89702  -0.86271  -0.82801  -0.81886  -0.81627
 Alpha  occ. eigenvalues --   -0.81097  -0.79887  -0.74592  -0.74087  -0.71228
 Alpha  occ. eigenvalues --   -0.70238  -0.69639  -0.69276  -0.69039  -0.68982
 Alpha  occ. eigenvalues --   -0.68323  -0.67177  -0.66213  -0.64013  -0.62489
 Alpha  occ. eigenvalues --   -0.60772  -0.60312  -0.59167  -0.58403  -0.57846
 Alpha  occ. eigenvalues --   -0.56968  -0.56925  -0.56837  -0.56556  -0.55714
 Alpha  occ. eigenvalues --   -0.53379  -0.53070  -0.52844  -0.52723  -0.52321
 Alpha  occ. eigenvalues --   -0.52036  -0.51626  -0.50871  -0.50838  -0.49886
 Alpha  occ. eigenvalues --   -0.49543  -0.49062  -0.48301  -0.48175  -0.47643
 Alpha  occ. eigenvalues --   -0.46492  -0.45676  -0.45424  -0.43951  -0.43284
 Alpha  occ. eigenvalues --   -0.42705  -0.41720  -0.39935  -0.39454  -0.37537
 Alpha  occ. eigenvalues --   -0.35419  -0.34914  -0.31353  -0.30919  -0.30206
 Alpha  occ. eigenvalues --   -0.28177  -0.27536
 Alpha virt. eigenvalues --   -0.02318  -0.01852   0.01689   0.02375   0.03350
 Alpha virt. eigenvalues --    0.10458   0.12173   0.13341   0.13645   0.14444
 Alpha virt. eigenvalues --    0.15488   0.15960   0.16141   0.17157   0.17989

 Mulliken charges:
               1
     1  C   -0.103752
     2  C    0.126797
     3  C   -0.382476
     4  N   -0.582381
     5  H    0.222949
     6  H    0.171982
     7  O   -0.666218
     8  H    0.182099
     9  H    0.193734
    10  C    0.028097
    11  C    0.083336
    12  C   -0.211168
    13  C   -0.168443
    14  C   -0.179631
    15  C   -0.188042
    16  H    0.176931
    17  H    0.176974
    18  H    0.177019
    19  H    0.183602
    20  H    0.438200
    21  H    0.376858
    22  C    0.359278
    23  S   -0.348144
    24  N   -0.702332
    25  H    0.399504
    26  C   -0.179800
    27  C   -0.096193
    28  C   -0.182180
    29  C    0.215891
    30  C   -0.173192
    31  C   -0.091104
    32  H    0.224251
    33  C    0.845039
    34  H    0.249427
    35  H    0.217391
    36  C    0.838262
    37  F   -0.270867
    38  F   -0.269690
    39  F   -0.274361
    40  F   -0.266927
    41  F   -0.274788
    42  F   -0.275929
 Sum of Mulliken charges =  -0.00000

 Dipole moment (field-independent basis, Debye):
    X=             -0.2106    Y=             -2.0495    Z=              2.4578  Tot=              3.2071
 Quadrupole moment (field-independent basis, Debye-Ang):
   XX=           -164.1103   YY=           -173.4357   ZZ=           -165.8627
   XY=             13.7042   XZ=             -9.0365   YZ=              1.3449

  Exact polarizability:     243.169      -8.910     276.820       6.084     -11.770     209.589
 Approx polarizability:     246.518     -14.345     315.088      12.088      -2.446     244.312

                      1                      2                      3
                      A                      A                      A
 Frequencies --     18.0561                20.9030                23.4752
 Red. masses --     10.0877                12.4424                16.7676
 Frc consts  --      0.0019                 0.0032                 0.0054
 IR Inten    --      0.3597                 0.1069                 0.1172

                      4                      5                      6
                      A                      A                      A
 Frequencies --     26.4006                56.8148                64.0250
 Red. masses --      7.4675                 8.0866                 5.7165
 Frc consts  --      0.0031                 0.0154                 0.0138
 IR Inten    --      0.8730                 1.9809                 2.2829

                      7                      8                      9
                      A                      A                      A
 Frequencies --     71.8029                92.2836                97.5084
 Red. masses --      8.1632                 6.6543                 7.6338
 Frc consts  --      0.0248                 0.0334                 0.0428
 IR Inten    --      2.1224                 1.9188                 2.4004

                     10                     11                     12
                      A                      A                      A
 Frequencies --    113.9356               118.6602               154.3017
 Red. masses --     14.5140                 7.0704                 7.6931
 Frc consts  --      0.1110                 0.0587                 0.1079
 IR Inten    --      1.4940                 2.5980                 0.3373

                     13                     14                     15
                      A                      A                      A
 Frequencies --    163.4644               189.9632               208.2540
 Red. masses --      6.7210                 7.1181                 5.4871
 Frc consts  --      0.1058                 0.1513                 0.1402
 IR Inten    --      6.1071                 5.6017                 4.7841

                     16                     17                     18
                      A                      A                      A
 Frequencies --    240.0587               259.8453               287.4850
 Red. masses --      3.6188                12.4767                10.2256
 Frc consts  --      0.1229                 0.4963                 0.4979
 IR Inten    --      0.7714                 1.9776                 3.3952

                     19                     20                     21
                      A                      A                      A
 Frequencies --    294.1556               305.7650               317.8580
 Red. masses --      5.2408                 6.2507                 5.6914
 Frc consts  --      0.2672                 0.3443                 0.3388
 IR Inten    --      5.8269                 3.6064                 2.8384

                     22                     23                     24
                      A                      A                      A
 Frequencies --    325.7372               345.6537               359.4660
 Red. masses --      5.8972                 5.9408                 9.5983
 Frc consts  --      0.3687                 0.4182                 0.7307
 IR Inten    --      9.0669                 9.4738                 5.3399

                     25                     26                     27
                      A                      A                      A
 Frequencies --    400.0033               413.0159               436.6126
 Red. masses --      6.3505                 8.7543                 4.6736
 Frc consts  --      0.5987                 0.8798                 0.5249
 IR Inten    --      5.0523                 7.2078                 5.5498

                     28                     29                     30
                      A                      A                      A
 Frequencies --    453.8773               458.6736               471.4553
 Red. masses --      4.1328                 2.3678                 3.7771
 Frc consts  --      0.5016                 0.2935                 0.4946
 IR Inten    --      8.4657                14.4445                58.2978

                     31                     32                     33
                      A                      A                      A
 Frequencies --    494.1893               499.9574               509.9923
 Red. masses --      1.4871                 1.2482                11.9402
 Frc consts  --      0.2140                 0.1838                 1.8297
 IR Inten    --     53.0655               302.8287                 0.2036

                     34                     35                     36
                      A                      A                      A
 Frequencies --    520.1696               534.9744               546.4141
 Red. masses --      5.9881                 5.3982                 3.5804
 Frc consts  --      0.9546                 0.9103                 0.6298
 IR Inten    --     26.3788                 5.8470                 5.0243

                     37                     38                     39
                      A                      A                      A
 Frequencies --    572.8124               579.6676               599.9531
 Red. masses --      1.2916                10.8685                 6.3758
 Frc consts  --      0.2497                 2.1517                 1.3521
 IR Inten    --     67.5773                 1.3202                15.8814

                     40                     41                     42
                      A                      A                      A
 Frequencies --    613.7475               625.9528               641.9800
 Red. masses --      5.8082                 7.6625                 5.5982
 Frc consts  --      1.2891                 1.7689                 1.3594
 IR Inten    --     16.6251                 0.6691                 2.0251

                     43                     44                     45
                      A                      A                      A
 Frequencies --    662.2904               675.2183               690.5389
 Red. masses --      6.1535                 6.6074                 9.7817
 Frc consts  --      1.5903                 1.7749                 2.7482
 IR Inten    --     19.2513                16.6170                43.4415

                     46                     47                     48
                      A                      A                      A
 Frequencies --    694.2530               703.9535               730.5463
 Red. masses --      9.8112                 3.3546                 2.7753
 Frc consts  --      2.7862                 0.9794                 0.8727
 IR Inten    --     20.3469                27.1786                14.4783

                     49                     50                     51
                      A                      A                      A
 Frequencies --    747.5029               755.9890               779.3210
 Red. masses --      4.8667                 6.8601                 1.3172
 Frc consts  --      1.6022                 2.3100                 0.4713
 IR Inten    --      1.1605                13.6069                42.1239

                     52                     53                     54
                      A                      A                      A
 Frequencies --    824.7145               852.4388               879.3027
 Red. masses --      3.3923                 4.1933                 4.9681
 Frc consts  --      1.3594                 1.7953                 2.2632
 IR Inten    --      5.4269                 8.1998                11.8561

                     55                     56                     57
                      A                      A                      A
 Frequencies --    892.9359               901.2454               912.8209
 Red. masses --      3.3165                 4.0994                 1.6200
 Frc consts  --      1.5580                 1.9618                 0.7953
 IR Inten    --     10.3976                 6.6549                 4.0208

                     58                     59                     60
                      A                      A                      A
 Frequencies --    931.9628               947.1484               972.4620
 Red. masses --      1.6037                 1.4171                 1.4787
 Frc consts  --      0.8206                 0.7490                 0.8239
 IR Inten    --     48.4367                 1.1952                 2.8659

                     61                     62                     63
                      A                      A                      A
 Frequencies --    987.2143               995.5441              1008.4494
 Red. masses --      5.5696                 1.5273                 1.5098
 Frc consts  --      3.1981                 0.8918                 0.9047
 IR Inten    --     25.0837                 8.2077                14.0470

                     64                     65                     66
                      A                      A                      A
 Frequencies --   1019.1972              1020.7177              1055.5778
 Red. masses --      1.2985                 5.7740                 2.6408
 Frc consts  --      0.7947                 3.5444                 1.7337
 IR Inten    --      0.1193                 0.2674                26.9559

                     67                     68                     69
                      A                      A                      A
 Frequencies --   1065.4110              1122.4436              1141.5445
 Red. masses --      2.0979                 2.0779                 1.8840
 Frc consts  --      1.4030                 1.5424                 1.4465
 IR Inten    --      0.5298                 4.9992                20.4634

                     70                     71                     72
                      A                      A                      A
 Frequencies --   1151.0644              1158.0652              1169.8557
 Red. masses --      1.8514                 1.7363                 2.6781
 Frc consts  --      1.4452                 1.3719                 2.1594
 IR Inten    --     39.2411                27.6378                45.6641

                     73                     74                     75
                      A                      A                      A
 Frequencies --   1184.3359              1188.6641              1213.4418
 Red. masses --      1.1488                 1.8157                 2.2244
 Frc consts  --      0.9494                 1.5115                 1.9297
 IR Inten    --      6.0654                 2.3373                16.2569

                     76                     77                     78
                      A                      A                      A
 Frequencies --   1223.7924              1239.5797              1247.6450
 Red. masses --      1.8571                 2.2383                10.6143
 Frc consts  --      1.6387                 2.0264                 9.7347
 IR Inten    --    188.5322               169.7500               208.6468

                     79                     80                     81
                      A                      A                      A
 Frequencies --   1254.4026              1258.4458              1265.5421
 Red. masses --      1.6201                 7.2014                 2.7483
 Frc consts  --      1.5020                 6.7195                 2.5934
 IR Inten    --     12.5183               280.8280               137.2974

                     82                     83                     84
                      A                      A                      A
 Frequencies --   1279.2790              1285.1537              1300.0044
 Red. masses --      3.3085                 8.5998                 2.0316
 Frc consts  --      3.1901                 8.3685                 2.0229
 IR Inten    --    122.7656               297.8868                41.4275

                     85                     86                     87
                      A                      A                      A
 Frequencies --   1314.0094              1320.6744              1333.0893
 Red. masses --      1.6188                 1.8092                 3.5028
 Frc consts  --      1.6468                 1.8592                 3.6676
 IR Inten    --     33.0157               134.9444               563.0643

                     88                     89                     90
                      A                      A                      A
 Frequencies --   1334.5750              1351.1871              1367.7267
 Red. masses --      1.4804                 1.4718                 1.7274
 Frc consts  --      1.5536                 1.5831                 1.9039
 IR Inten    --      6.8232               100.6050                23.4391

                     91                     92                     93
                      A                      A                      A
 Frequencies --   1370.6045              1372.8036              1423.8376
 Red. masses --      3.0921                 2.6472                 2.1071
 Frc consts  --      3.4224                 2.9394                 2.5168
 IR Inten    --     21.8811                10.8872                41.6544

                     94                     95                     96
                      A                      A                      A
 Frequencies --   1440.6787              1452.6148              1511.9501
 Red. masses --      6.3762                 1.5825                 1.1935
 Frc consts  --      7.7973                 1.9675                 1.6074
 IR Inten    --    436.8344                 9.8251                 3.0087

                     97                     98                     99
                      A                      A                      A
 Frequencies --   1517.5388              1522.1859              1531.8176
 Red. masses --      2.6369                 2.5229                 4.2797
 Frc consts  --      3.5779                 3.4441                 5.9167
 IR Inten    --    206.1858                17.6275                17.2874

                    100                    101                    102
                      A                      A                      A
 Frequencies --   1542.9113              1557.4458              1577.6552
 Red. masses --      2.8103                 2.5598                 2.4839
 Frc consts  --      3.9417                 3.6583                 3.6426
 IR Inten    --     16.8816               425.7876               656.4033

                    103                    104                    105
                      A                      A                      A
 Frequencies --   1677.5756              1702.1359              1703.4656
 Red. masses --      6.8412                 6.9149                 6.4060
 Frc consts  --     11.3434                11.8039                10.9523
 IR Inten    --      1.1236                 4.8675                14.1084

                    106                    107                    108
                      A                      A                      A
 Frequencies --   1708.8120              3066.1954              3087.3026
 Red. masses --      6.7726                 1.0856                 1.0658
 Frc consts  --     11.6519                 6.0133                 5.9854
 IR Inten    --     10.2219                49.3106                12.6410

                    109                    110                    111
                      A                      A                      A
 Frequencies --   3150.1176              3152.0181              3196.8940
 Red. masses --      1.0944                 1.0904                 1.0948
 Frc consts  --      6.3984                 6.3830                 6.5926
 IR Inten    --     12.0205                10.9299                38.4540

                    112                    113                    114
                      A                      A                      A
 Frequencies --   3220.2441              3225.1588              3234.7466
 Red. masses --      1.0868                 1.0902                 1.0940
 Frc consts  --      6.6400                 6.6812                 6.7445
 IR Inten    --      2.7870                 1.1644                18.8070

                    115                    116                    117
                      A                      A                      A
 Frequencies --   3246.5128              3249.1636              3265.8269
 Red. masses --      1.0978                 1.0926                 1.0924
 Frc consts  --      6.8174                 6.7963                 6.8646
 IR Inten    --     20.1799                 1.2534                 4.0629

                    118                    119                    120
                      A                      A                      A
 Frequencies --   3596.0255              3623.2636              3732.7768
 Red. masses --      1.0769                 1.0774                 1.0661
 Frc consts  --      8.2052                 8.3334                 8.7524
 IR Inten    --     68.8698               109.5751                93.4814

 - Thermochemistry -
 -------------------
 Temperature   298.150 Kelvin.  Pressure   1.00000 Atm.
 Atom     1 has atomic number  6 and mass  12.00000

 Molecular mass:   420.07310 amu.
 Principal axes and moments of inertia in atomic units:
                           1         2         3
     Eigenvalues --  8710.04539********************
           X            0.99984   0.01028  -0.01454
           Y           -0.01110   0.99828  -0.05757
           Z            0.01392   0.05772   0.99824
 This molecule is an asymmetric top.
 Rotational symmetry number  1.
 Warning -- assumption of classical behavior for rotation
           may cause significant error
 Rotational temperatures (Kelvin)      0.00994     0.00499     0.00456
 Rotational constants (GHZ):           0.20720     0.10402     0.09492
 Zero-point vibrational energy     805092.0 (Joules/Mol)
                                  192.42162 (Kcal/Mol)
 Warning -- explicit consideration of  40 degrees of freedom as
           vibrations may cause significant error
 Vibrational temperatures:     25.98    30.07    33.78    37.98    81.74
          (Kelvin)             92.12   103.31   132.78   140.29   163.93
                              170.73   222.01   235.19   273.31   299.63
                              345.39   373.86   413.63   423.22   439.93
                              457.33   468.66   497.32   517.19   575.52
                              594.24   628.19   653.03   659.93   678.32
                              711.03   719.33   733.77   748.41   769.71
                              786.17   824.15   834.01   863.20   883.05
                              900.61   923.67   952.89   971.49   993.53
                              998.88  1012.83  1051.09  1075.49  1087.70
                             1121.27  1186.58  1226.47  1265.12  1284.74
                             1296.69  1313.35  1340.89  1362.74  1399.16
                             1420.38  1432.37  1450.93  1466.40  1468.59
                             1518.74  1532.89  1614.95  1642.43  1656.13
                             1666.20  1683.16  1704.00  1710.22  1745.87
                             1760.76  1783.48  1795.08  1804.81  1810.62
                             1820.83  1840.60  1849.05  1870.42  1890.57
                             1900.16  1918.02  1920.16  1944.06  1967.85
                             1971.99  1975.16  2048.58  2072.82  2089.99
                             2175.36  2183.40  2190.09  2203.94  2219.91
                             2240.82  2269.89  2413.66  2448.99  2450.91
                             2458.60  4411.57  4441.94  4532.32  4535.05
                             4599.62  4633.21  4640.28  4654.08  4671.01
                             4674.82  4698.80  5173.88  5213.07  5370.63

 Zero-point correction=                           0.306643 (Hartree/Particle)
 Thermal correction to Energy=                    0.330460
 Thermal correction to Enthalpy=                  0.331404
 Thermal correction to Gibbs Free Energy=         0.249932
 Sum of electronic and zero-point Energies=          -1875.475751
 Sum of electronic and thermal Energies=             -1875.451934
 Sum of electronic and thermal Enthalpies=           -1875.450990
 Sum of electronic and thermal Free Energies=        -1875.532463

                     E (Thermal)             CV                S
                      KCal/Mol        Cal/Mol-Kelvin    Cal/Mol-Kelvin
 Total                  207.367             91.187            171.473
 Electronic               0.000              0.000              0.000
 Translational            0.889              2.981             43.996
 Rotational               0.889              2.981             36.306
 Vibrational            205.589             85.226             91.171
 Vibration     1          0.593              1.986              6.837
 Vibration     2          0.593              1.986              6.547
 Vibration     3          0.593              1.985              6.316
 Vibration     4          0.593              1.985              6.083
 Vibration     5          0.596              1.975              4.565
 Vibration     6          0.597              1.971              4.329
 Vibration     7          0.598              1.967              4.103
 Vibration     8          0.602              1.955              3.611
 Vibration     9          0.603              1.951              3.504
 Vibration    10          0.607              1.938              3.201
 Vibration    11          0.609              1.934              3.122
 Vibration    12          0.620              1.898              2.618
 Vibration    13          0.623              1.887              2.509
 Vibration    14          0.633              1.854              2.228
 Vibration    15          0.642              1.828              2.059
 Vibration    16          0.657              1.779              1.802
 Vibration    17          0.668              1.746              1.663
 Vibration    18          0.685              1.697              1.489
 Vibration    19          0.689              1.685              1.450
 Vibration    20          0.696              1.663              1.385
 Vibration    21          0.704              1.639              1.321
 Vibration    22          0.710              1.624              1.281
 Vibration    23          0.724              1.584              1.186
 Vibration    24          0.734              1.556              1.124
 Vibration    25          0.766              1.470              0.963
 Vibration    26          0.777              1.442              0.916
 Vibration    27          0.797              1.390              0.837
 Vibration    28          0.812              1.352              0.784
 Vibration    29          0.817              1.342              0.770
 Vibration    30          0.828              1.313              0.733
 Vibration    31          0.850              1.263              0.673
 Vibration    32          0.855              1.250              0.658
 Vibration    33          0.865              1.228              0.634
 Vibration    34          0.875              1.205              0.610
 Vibration    35          0.890              1.173              0.576
 Vibration    36          0.902              1.148              0.552
 Vibration    37          0.929              1.090              0.499
 Vibration    38          0.936              1.075              0.486
 Vibration    39          0.958              1.032              0.450
 Vibration    40          0.973              1.003              0.427

 Optimization completed.
    -- Stationary point found.
 Normal termination of Gaussian 16 at Mon Dec 11 14:30:02 2023.
