 Gaussian 16, Revision C.01,
 Gaussian 16:  ES64L-G16RevC.01  3-Jul-2019

 ----------------------------------------------------------------------
 # wb97xd def2svp geom=allchk scrf=(iefpcm,solvent=toluene) opt=(readfc
 ,ts,noeigen,maxcycles=50,maxstep=10)
 ----------------------------------------------------------------------

 Structure from the checkpoint file:  "allylic-1_1_opt_sqm_re.chk"
 -----------------------
 allylic-1_1_opt_sqm.out
 -----------------------
 Charge =  0 Multiplicity = 1

 SCF Done:  E(RwB97XD) =  -389.899261150     A.U. after   16 cycles
 SCF Done:  E(RwB97XD) =  -389.899392121     A.U. after   13 cycles
 SCF Done:  E(RwB97XD) =  -389.899367753     A.U. after   14 cycles
 SCF Done:  E(RwB97XD) =  -389.899441987     A.U. after   12 cycles
 SCF Done:  E(RwB97XD) =  -389.899473200     A.U. after   13 cycles
 SCF Done:  E(RwB97XD) =  -389.899433782     A.U. after   13 cycles
 SCF Done:  E(RwB97XD) =  -389.899479125     A.U. after   13 cycles
 SCF Done:  E(RwB97XD) =  -389.899423282     A.U. after   13 cycles
 SCF Done:  E(RwB97XD) =  -389.899476304     A.U. after   13 cycles
 SCF Done:  E(RwB97XD) =  -389.899484753     A.U. after   12 cycles
 SCF Done:  E(RwB97XD) =  -389.899465588     A.U. after   13 cycles
 SCF Done:  E(RwB97XD) =  -389.899412108     A.U. after   13 cycles
 SCF Done:  E(RwB97XD) =  -389.899409147     A.U. after   13 cycles
 SCF Done:  E(RwB97XD) =  -389.899480736     A.U. after   14 cycles
 SCF Done:  E(RwB97XD) =  -389.899383216     A.U. after   12 cycles
 SCF Done:  E(RwB97XD) =  -389.899484351     A.U. after   11 cycles
 SCF Done:  E(RwB97XD) =  -389.899487735     A.U. after   12 cycles
 SCF Done:  E(RwB97XD) =  -389.899444331     A.U. after   12 cycles
 SCF Done:  E(RwB97XD) =  -389.899486808     A.U. after   12 cycles
 SCF Done:  E(RwB97XD) =  -389.899487429     A.U. after   11 cycles
 Optimization completed.
    -- Stationary point found.

                         Standard orientation:
 ---------------------------------------------------------------------
 Center     Atomic      Atomic             Coordinates (Angstroms)
 Number     Number       Type             X           Y           Z
 ---------------------------------------------------------------------
      1          6           0        0.923334    0.458295   -0.940450
      2          6           0       -2.395556    0.199275    0.264866
      3          6           0        0.976597   -1.893703   -0.527754
      4          6           0       -2.287379   -0.684911   -0.714492
      5          7           0        1.240184   -0.486373   -0.134097
      6          1           0       -3.149015   -0.836559   -1.366623
      7          1           0        0.312995   -2.258608    0.286840
      8          1           0       -3.277699    0.804328    0.491380
      9          1           0        1.939483   -2.412566   -0.334274
     10          1           0        0.534967    0.090888   -1.895039
     11          1           0       -1.371181   -1.267512   -0.888532
     12          9           0       -1.388501    0.458762    1.119505
     13          6           0        1.015889    1.918703   -0.662196
     14          1           0        2.050800    2.225410   -0.444721
     15          1           0        0.661216    2.488559   -1.528473
     16          1           0        0.393792    2.177763    0.208160
     17          6           0        1.771098   -0.206486    1.198262
     18          1           0        2.627361   -0.870950    1.366696
     19          1           0        2.080132    0.838543    1.328971
     20          1           0        0.988472   -0.450585    1.929327
 ---------------------------------------------------------------------

 The electronic state is 1-A.
 Alpha  occ. eigenvalues --  -24.82785 -14.52797 -10.37909 -10.37702 -10.34000
 Alpha  occ. eigenvalues --  -10.32438 -10.29225 -10.23170  -1.31074  -1.08262
 Alpha  occ. eigenvalues --   -0.87366  -0.85643  -0.82209  -0.74816  -0.69453
 Alpha  occ. eigenvalues --   -0.65607  -0.61754  -0.58437  -0.57669  -0.56362
 Alpha  occ. eigenvalues --   -0.56199  -0.55562  -0.51703  -0.49765  -0.48712
 Alpha  occ. eigenvalues --   -0.48441  -0.46088  -0.45171  -0.44299  -0.37055
 Alpha  occ. eigenvalues --   -0.34608  -0.22340
 Alpha virt. eigenvalues --    0.02601   0.09009   0.13262   0.16438   0.16691
 Alpha virt. eigenvalues --    0.17040   0.19364   0.20794   0.21179   0.21585
 Alpha virt. eigenvalues --    0.22621   0.22912   0.24365   0.25106   0.27207

 Mulliken charges:
               1
     1  C    0.046769
     2  C    0.148822
     3  C   -0.301923
     4  C   -0.155869
     5  N   -0.189682
     6  H    0.070741
     7  H   -0.019046
     8  H    0.056138
     9  H   -0.031195
    10  H    0.082485
    11  H    0.074750
    12  F   -0.230994
    13  C   -0.066283
    14  H    0.094075
    15  H    0.076498
    16  H    0.089898
    17  C    0.052872
    18  H    0.071147
    19  H    0.049511
    20  H    0.081286
 Sum of Mulliken charges =  -0.00000

 Dipole moment (field-independent basis, Debye):
    X=              0.2831    Y=              5.8881    Z=              1.6039  Tot=              6.1092
 Quadrupole moment (field-independent basis, Debye-Ang):
   XX=            -41.7900   YY=            -56.7086   ZZ=            -50.8907
   XY=              3.7469   XZ=              4.0329   YZ=             -6.6452

 1\1\GINC-NODE-006\FTS\RwB97XD\def2SVP\C6H12F1N1\JP2658\22-Dec-2023\0\\
 # wb97xd def2svp geom=allchk scrf=(iefpcm,solvent=toluene) opt=(readfc
 ,ts,noeigen,maxcycles=50,maxstep=10)\\allylic-1_1_opt_sqm.out\\0,1\C,-
 0.8938188388,-0.5163181198,-0.9583524427\C,2.3932421676,-0.0875091746,
 0.285133829\C,-1.0677837689,1.8324295341,-0.560648263\C,2.2537506149,0
 .784886819,-0.7008153383\N,-1.2666434936,0.4160049622,-0.1616275569\H,
 3.1148361193,0.9752145481,-1.3434628303\H,-0.4330002777,2.2340466916,0
 .2596198667\H,3.3012291248,-0.647119944,0.5259036873\H,-2.0573334304,2

 Normal termination of Gaussian 16 at Fri Dec 22 23:51:17 2023.
