 Gaussian 16, Revision C.01,
 Gaussian 16:  ES64L-G16RevC.01  3-Jul-2019

 -----------------------------------------------------------
 # wb97xd def2svp scrf=(iefpcm,solvent=toluene) freq=noraman
 -----------------------------------------------------------

 -----------------------------
 allylic-1_1_opt_dft_reopt.out
 -----------------------------
 Symbolic Z-matrix:
 Charge =  0 Multiplicity = 1

                         Standard orientation:
 ---------------------------------------------------------------------
 Center     Atomic      Atomic             Coordinates (Angstroms)
 Number     Number       Type             X           Y           Z
 ---------------------------------------------------------------------
      1          6           0        0.923361    0.458360   -0.940460
      2          6           0       -2.395450    0.199262    0.264890
      3          6           0        0.976559   -1.893660   -0.527870
      4          6           0       -2.287280   -0.684668   -0.714690
      5          7           0        1.240170   -0.486360   -0.134150
      6          1           0       -3.148890   -0.836058   -1.366920
      7          1           0        0.312889   -2.258570    0.286660
      8          1           0       -3.277559    0.804322    0.491510
      9          1           0        1.939429   -2.412550   -0.334340
     10          1           0        0.535010    0.091020   -1.895070
     11          1           0       -1.371120   -1.267299   -0.888870
     12          9           0       -1.388429    0.458441    1.119670
     13          6           0        1.015861    1.918740   -0.662080
     14          1           0        0.661561    2.488680   -1.528450
     15          1           0        0.393401    2.177730    0.208040
     16          1           0        2.050681    2.225420   -0.444130
     17          6           0        1.770940   -0.206530    1.198290
     18          1           0        2.626990   -0.871221    1.366920
     19          1           0        2.080231    0.838420    1.328980
     20          1           0        0.988100   -0.450370    1.929210
 ---------------------------------------------------------------------

 SCF Done:  E(RwB97XD) =  -389.899487482     A.U. after   16 cycles

 The electronic state is 1-A.
 Alpha  occ. eigenvalues --  -24.82785 -14.52797 -10.37909 -10.37702 -10.34000
 Alpha  occ. eigenvalues --  -10.32438 -10.29225 -10.23170  -1.31074  -1.08262
 Alpha  occ. eigenvalues --   -0.87366  -0.85644  -0.82209  -0.74816  -0.69453
 Alpha  occ. eigenvalues --   -0.65607  -0.61754  -0.58437  -0.57670  -0.56362
 Alpha  occ. eigenvalues --   -0.56199  -0.55562  -0.51703  -0.49765  -0.48712
 Alpha  occ. eigenvalues --   -0.48441  -0.46088  -0.45171  -0.44299  -0.37055
 Alpha  occ. eigenvalues --   -0.34609  -0.22340
 Alpha virt. eigenvalues --    0.02601   0.09009   0.13262   0.16437   0.16692
 Alpha virt. eigenvalues --    0.17040   0.19362   0.20794   0.21179   0.21586
 Alpha virt. eigenvalues --    0.22624   0.22912   0.24365   0.25106   0.27207

 Mulliken charges:
               1
     1  C    0.046770
     2  C    0.148824
     3  C   -0.301928
     4  C   -0.155873
     5  N   -0.189681
     6  H    0.070741
     7  H   -0.019043
     8  H    0.056141
     9  H   -0.031192
    10  H    0.082481
    11  H    0.074756
    12  F   -0.230994
    13  C   -0.066277
    14  H    0.076497
    15  H    0.089897
    16  H    0.094070
    17  C    0.052872
    18  H    0.071141
    19  H    0.049507
    20  H    0.081290
 Sum of Mulliken charges =  -0.00000

 Dipole moment (field-independent basis, Debye):
    X=              0.2827    Y=              5.8883    Z=              1.6042  Tot=              6.1095
 Quadrupole moment (field-independent basis, Debye-Ang):
   XX=            -41.7914   YY=            -56.7079   ZZ=            -50.8913
   XY=              3.7462   XZ=              4.0332   YZ=             -6.6455

  Exact polarizability:      78.834      -4.320      97.531       7.481       1.734      80.669
 Approx polarizability:      71.411      -3.664      90.280       5.969       3.196      81.754

 ******    1 imaginary frequencies (negative Signs) ******

                      1                      2                      3
                      A                      A                      A
 Frequencies --   -360.0042                47.5084                73.8015
 Red. masses --      1.0889                 3.7993                 3.4146
 Frc consts  --      0.0831                 0.0051                 0.0110
 IR Inten    --     61.4453                 5.8127                21.3772

                      4                      5                      6
                      A                      A                      A
 Frequencies --     81.0048               117.4179               128.5599
 Red. masses --      2.4435                 4.9849                 1.2155
 Frc consts  --      0.0094                 0.0405                 0.0118
 IR Inten    --      1.2809                 0.3504                 0.2885

                      7                      8                      9
                      A                      A                      A
 Frequencies --    144.9202               157.8480               184.5150
 Red. masses --      1.5121                 2.0103                 2.1423
 Frc consts  --      0.0187                 0.0295                 0.0430
 IR Inten    --      2.0709                12.3434                 3.4886

                     10                     11                     12
                      A                      A                      A
 Frequencies --    304.9854               331.4177               452.4529
 Red. masses --      2.5396                 2.6722                 2.6348
 Frc consts  --      0.1392                 0.1729                 0.3178
 IR Inten    --     23.6505                 4.9846                11.4391

                     13                     14                     15
                      A                      A                      A
 Frequencies --    486.6309               525.1556               569.8103
 Red. masses --      2.4201                 2.5070                 3.2129
 Frc consts  --      0.3377                 0.4074                 0.6146
 IR Inten    --      1.7699                 3.1417                13.0792

                     16                     17                     18
                      A                      A                      A
 Frequencies --    751.6295               804.8733               858.6559
 Red. masses --      1.4199                 3.2222                 1.1230
 Frc consts  --      0.4726                 1.2299                 0.4878
 IR Inten    --      8.5635                 3.9325                38.6794

                     19                     20                     21
                      A                      A                      A
 Frequencies --    948.2673               958.6115               971.5077
 Red. masses --      1.9459                 1.4072                 1.7628
 Frc consts  --      1.0309                 0.7619                 0.9803
 IR Inten    --     45.6191                 7.7278                25.7664

                     22                     23                     24
                      A                      A                      A
 Frequencies --   1016.4748              1031.9542              1037.9870
 Red. masses --      1.1588                 1.9863                 1.3490
 Frc consts  --      0.7054                 1.2463                 0.8564
 IR Inten    --     56.8784                 1.1490                28.7382

                     25                     26                     27
                      A                      A                      A
 Frequencies --   1094.1648              1124.8344              1131.9784
 Red. masses --      1.5199                 1.2784                 1.8873
 Frc consts  --      1.0721                 0.9530                 1.4249
 IR Inten    --      1.3567                 1.4178                27.9374

                     28                     29                     30
                      A                      A                      A
 Frequencies --   1178.5773              1204.2968              1241.1684
 Red. masses --      3.0175                 1.8913                 1.3244
 Frc consts  --      2.4695                 1.6162                 1.2021
 IR Inten    --    117.3166                 2.9735                18.2952

                     31                     32                     33
                      A                      A                      A
 Frequencies --   1339.7319              1346.9704              1394.3407
 Red. masses --      1.1485                 1.3262                 1.2546
 Frc consts  --      1.2145                 1.4176                 1.4372
 IR Inten    --      1.6737                 4.8882                15.0174

                     34                     35                     36
                      A                      A                      A
 Frequencies --   1412.9186              1428.6166              1438.9707
 Red. masses --      1.1859                 1.1756                 1.0930
 Frc consts  --      1.3949                 1.4136                 1.3334
 IR Inten    --      4.6742                 2.7285                19.5550

                     37                     38                     39
                      A                      A                      A
 Frequencies --   1455.0239              1458.9616              1475.0473
 Red. masses --      1.0492                 1.1450                 1.0422
 Frc consts  --      1.3087                 1.4360                 1.3361
 IR Inten    --     28.9307                 7.9279                 1.1131

                     40                     41                     42
                      A                      A                      A
 Frequencies --   1479.7949              1748.0576              1806.5430
 Red. masses --      1.0706                 4.8757                 7.7028
 Frc consts  --      1.3813                 8.7781                14.8113
 IR Inten    --     12.0012               100.5714                31.8591

                     43                     44                     45
                      A                      A                      A
 Frequencies --   2970.8734              3016.5456              3064.7202
 Red. masses --      1.0567                 1.0999                 1.0391
 Frc consts  --      5.4952                 5.8969                 5.7505
 IR Inten    --     72.1163               109.5321                 1.4862

                     46                     47                     48
                      A                      A                      A
 Frequencies --   3075.1849              3103.4371              3155.6898
 Red. masses --      1.0332                 1.0748                 1.1024
 Frc consts  --      5.7568                 6.0992                 6.4679
 IR Inten    --     20.4413               110.0552                 0.4134

                     49                     50                     51
                      A                      A                      A
 Frequencies --   3187.0478              3194.5146              3195.9748
 Red. masses --      1.1068                 1.1057                 1.1051
 Frc consts  --      6.6235                 6.6482                 6.6506
 IR Inten    --     13.6104                 7.1776                 4.4900

                     52                     53                     54
                      A                      A                      A
 Frequencies --   3222.9630              3223.2908              3267.5779
 Red. masses --      1.0924                 1.0979                 1.1125
 Frc consts  --      6.6853                 6.7206                 6.9981
 IR Inten    --      1.3482                21.3027                 9.5261

 - Thermochemistry -
 -------------------
 Temperature   298.150 Kelvin.  Pressure   1.00000 Atm.
 Atom     1 has atomic number  6 and mass  12.00000

 Molecular mass:   117.09538 amu.
 Principal axes and moments of inertia in atomic units:
                           1         2         3
     Eigenvalues --   782.095661390.533421575.77922
           X            0.99876   0.02158   0.04489
           Y           -0.01898   0.99816  -0.05755
           Z           -0.04605   0.05663   0.99733
 This molecule is an asymmetric top.
 Rotational symmetry number  1.
 Warning -- assumption of classical behavior for rotation
           may cause significant error
 Rotational temperatures (Kelvin)      0.11075     0.06229     0.05497
 Rotational constants (GHZ):           2.30757     1.29788     1.14530
    1 imaginary frequencies ignored.
 Zero-point vibrational energy     445153.2 (Joules/Mol)
                                  106.39417 (Kcal/Mol)
 Warning -- explicit consideration of  14 degrees of freedom as
           vibrations may cause significant error
 Vibrational temperatures:     68.35   106.18   116.55   168.94   184.97
          (Kelvin)            208.51   227.11   265.48   438.81   476.84
                              650.98   700.15   755.58   819.83  1081.43
                             1158.03  1235.41  1364.35  1379.23  1397.78
                             1462.48  1484.75  1493.43  1574.26  1618.39
                             1628.66  1695.71  1732.71  1785.76  1927.58
                             1937.99  2006.15  2032.87  2055.46  2070.36
                             2093.45  2099.12  2122.26  2129.09  2515.06
                             2599.21  4274.42  4340.14  4409.45  4424.51
                             4465.15  4540.33  4585.45  4596.19  4598.29
                             4637.12  4637.60  4701.32

 Zero-point correction=                           0.169550 (Hartree/Particle)
 Thermal correction to Energy=                    0.180359
 Thermal correction to Enthalpy=                  0.181304
 Thermal correction to Gibbs Free Energy=         0.132578
 Sum of electronic and zero-point Energies=           -389.729938
 Sum of electronic and thermal Energies=              -389.719128
 Sum of electronic and thermal Enthalpies=            -389.718184
 Sum of electronic and thermal Free Energies=         -389.766909

                     E (Thermal)             CV                S
                      KCal/Mol        Cal/Mol-Kelvin    Cal/Mol-Kelvin
 Total                  113.177             36.288            102.551
 Electronic               0.000              0.000              0.000
 Translational            0.889              2.981             40.188
 Rotational               0.889              2.981             28.929
 Vibrational            111.400             30.326             33.434
 Vibration     1          0.595              1.979              4.918
 Vibration     2          0.599              1.966              4.049
 Vibration     3          0.600              1.962              3.866
 Vibration     4          0.608              1.935              3.142
 Vibration     5          0.611              1.925              2.967
 Vibration     6          0.616              1.908              2.738
 Vibration     7          0.621              1.894              2.575
 Vibration     8          0.631              1.861              2.282
 Vibration     9          0.696              1.664              1.389
 Vibration    10          0.714              1.613              1.253
 Vibration    11          0.811              1.355              0.788
 Vibration    12          0.843              1.280              0.692
 Vibration    13          0.880              1.194              0.598
 Vibration    14          0.926              1.097              0.505

 Normal termination of Gaussian 16 at Sat Dec 30 20:49:48 2023.
