 Gaussian 16, Revision C.01,
 Gaussian 16:  ES64L-G16RevC.01  3-Jul-2019

 ----------------------------------------------------------------------
 # wb97xd def2svp geom=allchk scrf=(iefpcm,solvent=toluene) opt=(readfc
 ,ts,noeigen,maxcycles=50,maxstep=10)
 ----------------------------------------------------------------------

 Structure from the checkpoint file:  "allylic-1_1_hf.chk"
 ---------------------
 allyl_ts_46_reopt.out
 ---------------------
 Charge =  0 Multiplicity = 1

 SCF Done:  E(RwB97XD) =  -389.899470136     A.U. after   16 cycles
 SCF Done:  E(RwB97XD) =  -389.899449314     A.U. after   13 cycles
 SCF Done:  E(RwB97XD) =  -389.899484888     A.U. after   13 cycles
 SCF Done:  E(RwB97XD) =  -389.899486298     A.U. after   11 cycles
 SCF Done:  E(RwB97XD) =  -389.899430325     A.U. after   12 cycles
 SCF Done:  E(RwB97XD) =  -389.899486543     A.U. after   12 cycles
 SCF Done:  E(RwB97XD) =  -389.899485806     A.U. after   12 cycles
 SCF Done:  E(RwB97XD) =  -389.899486641     A.U. after   11 cycles
 SCF Done:  E(RwB97XD) =  -389.899439011     A.U. after   13 cycles
 SCF Done:  E(RwB97XD) =  -389.899487155     A.U. after   13 cycles
 SCF Done:  E(RwB97XD) =  -389.899487037     A.U. after   12 cycles
 SCF Done:  E(RwB97XD) =  -389.899487326     A.U. after   10 cycles
 SCF Done:  E(RwB97XD) =  -389.899487463     A.U. after   11 cycles
 SCF Done:  E(RwB97XD) =  -389.899487467     A.U. after   11 cycles
 SCF Done:  E(RwB97XD) =  -389.899487301     A.U. after   10 cycles
 Optimization completed.
    -- Stationary point found.

                         Standard orientation:
 ---------------------------------------------------------------------
 Center     Atomic      Atomic             Coordinates (Angstroms)
 Number     Number       Type             X           Y           Z
 ---------------------------------------------------------------------
      1          6           0       -0.923577   -0.458119   -0.940451
      2          6           0        2.396170   -0.199542    0.265183
      3          6           0       -0.976162    1.893874   -0.527564
      4          6           0        2.288500    0.684699   -0.714185
      5          7           0       -1.240477    0.486612   -0.134164
      6          1           0        3.150526    0.836806   -1.365671
      7          1           0       -0.312794    2.258290    0.287432
      8          1           0        3.278279   -0.804370    0.492394
      9          1           0       -1.938901    2.413140   -0.334398
     10          1           0       -0.534761   -0.090801   -1.894880
     11          1           0        1.372228    1.267040   -0.888515
     12          9           0        1.388443   -0.459303    1.118963
     13          6           0       -1.016572   -1.918497   -0.662193
     14          1           0       -0.661889   -2.488469   -1.528389
     15          1           0       -0.394673   -2.177671    0.208273
     16          1           0       -2.051595   -2.224947   -0.444890
     17          6           0       -1.771818    0.206720    1.198031
     18          1           0       -2.626960    0.872495    1.366943
     19          1           0       -2.082595   -0.837884    1.328023
     20          1           0       -0.988747    0.449005    1.929236
 ---------------------------------------------------------------------

 The electronic state is 1-A.
 Alpha  occ. eigenvalues --  -24.82784 -14.52797 -10.37909 -10.37701 -10.34000
 Alpha  occ. eigenvalues --  -10.32437 -10.29225 -10.23169  -1.31073  -1.08261
 Alpha  occ. eigenvalues --   -0.87366  -0.85643  -0.82209  -0.74816  -0.69452
 Alpha  occ. eigenvalues --   -0.65607  -0.61754  -0.58437  -0.57669  -0.56361
 Alpha  occ. eigenvalues --   -0.56198  -0.55562  -0.51702  -0.49765  -0.48712
 Alpha  occ. eigenvalues --   -0.48441  -0.46088  -0.45171  -0.44300  -0.37053
 Alpha  occ. eigenvalues --   -0.34608  -0.22340
 Alpha virt. eigenvalues --    0.02601   0.09009   0.13261   0.16437   0.16691
 Alpha virt. eigenvalues --    0.17040   0.19359   0.20794   0.21179   0.21586
 Alpha virt. eigenvalues --    0.22628   0.22913   0.24364   0.25105   0.27205

 Mulliken charges:
               1
     1  C    0.046775
     2  C    0.148825
     3  C   -0.301917
     4  C   -0.155845
     5  N   -0.189698
     6  H    0.070749
     7  H   -0.019072
     8  H    0.056141
     9  H   -0.031183
    10  H    0.082490
    11  H    0.074751
    12  F   -0.231000
    13  C   -0.066293
    14  H    0.076497
    15  H    0.089895
    16  H    0.094073
    17  C    0.052874
    18  H    0.071126
    19  H    0.049513
    20  H    0.081303
 Sum of Mulliken charges =  -0.00000

 Dipole moment (field-independent basis, Debye):
    X=             -0.2848    Y=             -5.8877    Z=              1.6044  Tot=              6.1090
 Quadrupole moment (field-independent basis, Debye-Ang):
   XX=            -41.7798   YY=            -56.7114   ZZ=            -50.8889
   XY=              3.7451   XZ=             -4.0274   YZ=              6.6436

 1\1\GINC-NODE-008\FTS\RwB97XD\def2SVP\C6H12F1N1\JP2658\22-Dec-2023\0\\
 # wb97xd def2svp geom=allchk scrf=(iefpcm,solvent=toluene) opt=(readfc
 ,ts,noeigen,maxcycles=50,maxstep=10)\\allyl_ts_46_reopt.out\\0,1\C,1.4
 194826843,0.0350594102,0.6318827406\C,-2.0476909206,-0.5657847947,1.03
 04176582\C,0.6887234222,2.1535442247,-0.1946333538\C,-1.792498944,0.56
 512118,1.6696083145\N,1.1305204097,0.7496998166,-0.3922424284\H,-2.330
 1261181,0.7625343797,2.5983947281\H,-0.3145433248,2.1671834158,-0.6745
 758675\H,-2.7564771914,-1.3369178591,1.3443177378\H,1.3229716874,2.736

 Normal termination of Gaussian 16 at Fri Dec 22 17:40:38 2023.
