 Gaussian 16, Revision C.01,
 Gaussian 16:  ES64L-G16RevC.01  3-Jul-2019

 -----------------------------------------------------------
 # wb97xd def2svp scrf=(iefpcm,solvent=toluene) freq=noraman
 -----------------------------------------------------------

 --------------------------
 allylic-1_1_opt_sqm_re.out
 --------------------------
 Symbolic Z-matrix:
 Charge =  0 Multiplicity = 1

                         Standard orientation:
 ---------------------------------------------------------------------
 Center     Atomic      Atomic             Coordinates (Angstroms)
 Number     Number       Type             X           Y           Z
 ---------------------------------------------------------------------
      1          6           0        0.923330    0.458301   -0.940450
      2          6           0       -2.395560    0.199277    0.264870
      3          6           0        0.976603   -1.893699   -0.527750
      4          6           0       -2.287379   -0.684913   -0.714490
      5          7           0        1.240181   -0.486369   -0.134100
      6          1           0       -3.149009   -0.836564   -1.366620
      7          1           0        0.313003   -2.258610    0.286840
      8          1           0       -3.277700    0.804326    0.491380
      9          1           0        1.939483   -2.412568   -0.334270
     10          1           0        0.534970    0.090890   -1.895040
     11          1           0       -1.371178   -1.267512   -0.888530
     12          9           0       -1.388500    0.458758    1.119500
     13          6           0        1.015888    1.918701   -0.662200
     14          1           0        2.050798    2.225412   -0.444720
     15          1           0        0.661218    2.488560   -1.528470
     16          1           0        0.393788    2.177760    0.208160
     17          6           0        1.771101   -0.206488    1.198260
     18          1           0        2.627361   -0.870947    1.366700
     19          1           0        2.080129    0.838542    1.328970
     20          1           0        0.988471   -0.450589    1.929330
 ---------------------------------------------------------------------

 SCF Done:  E(RwB97XD) =  -389.899487429     A.U. after   16 cycles

 The electronic state is 1-A.
 Alpha  occ. eigenvalues --  -24.82785 -14.52797 -10.37909 -10.37702 -10.34000
 Alpha  occ. eigenvalues --  -10.32438 -10.29225 -10.23169  -1.31074  -1.08262
 Alpha  occ. eigenvalues --   -0.87366  -0.85643  -0.82209  -0.74816  -0.69453
 Alpha  occ. eigenvalues --   -0.65607  -0.61754  -0.58437  -0.57669  -0.56362
 Alpha  occ. eigenvalues --   -0.56199  -0.55562  -0.51703  -0.49765  -0.48712
 Alpha  occ. eigenvalues --   -0.48441  -0.46088  -0.45171  -0.44299  -0.37055
 Alpha  occ. eigenvalues --   -0.34608  -0.22340
 Alpha virt. eigenvalues --    0.02601   0.09009   0.13262   0.16438   0.16691
 Alpha virt. eigenvalues --    0.17040   0.19364   0.20794   0.21179   0.21585
 Alpha virt. eigenvalues --    0.22621   0.22912   0.24365   0.25106   0.27207

 Mulliken charges:
               1
     1  C    0.046771
     2  C    0.148823
     3  C   -0.301923
     4  C   -0.155870
     5  N   -0.189680
     6  H    0.070738
     7  H   -0.019047
     8  H    0.056137
     9  H   -0.031195
    10  H    0.082484
    11  H    0.074751
    12  F   -0.230992
    13  C   -0.066282
    14  H    0.094076
    15  H    0.076497
    16  H    0.089899
    17  C    0.052870
    18  H    0.071147
    19  H    0.049510
    20  H    0.081288
 Sum of Mulliken charges =  -0.00000

 Dipole moment (field-independent basis, Debye):
    X=              0.2831    Y=              5.8882    Z=              1.6039  Tot=              6.1093
 Quadrupole moment (field-independent basis, Debye-Ang):
   XX=            -41.7900   YY=            -56.7085   ZZ=            -50.8907
   XY=              3.7469   XZ=              4.0329   YZ=             -6.6453

  Exact polarizability:      78.834      -4.319      97.535       7.481       1.734      80.665
 Approx polarizability:      71.411      -3.663      90.284       5.969       3.196      81.749

 ******    1 imaginary frequencies (negative Signs) ******

                      1                      2                      3
                      A                      A                      A
 Frequencies --   -360.1151                47.3889                73.7841
 Red. masses --      1.0888                 3.8037                 3.4071
 Frc consts  --      0.0832                 0.0050                 0.0109
 IR Inten    --     61.4563                 5.8195                21.4576

                      4                      5                      6
                      A                      A                      A
 Frequencies --     80.8437               117.3624               128.3116
 Red. masses --      2.4622                 5.0202                 1.2134
 Frc consts  --      0.0095                 0.0407                 0.0118
 IR Inten    --      1.2256                 0.3520                 0.2875

                      7                      8                      9
                      A                      A                      A
 Frequencies --    144.7640               157.6082               184.4463
 Red. masses --      1.4915                 2.0358                 2.1426
 Frc consts  --      0.0184                 0.0298                 0.0429
 IR Inten    --      1.9665                12.4369                 3.4751

                     10                     11                     12
                      A                      A                      A
 Frequencies --    304.9596               331.3389               452.4277
 Red. masses --      2.5397                 2.6721                 2.6348
 Frc consts  --      0.1392                 0.1728                 0.3178
 IR Inten    --     23.6582                 4.9734                11.4397

                     13                     14                     15
                      A                      A                      A
 Frequencies --    486.5771               525.1317               569.8014
 Red. masses --      2.4199                 2.5068                 3.2129
 Frc consts  --      0.3376                 0.4073                 0.6146
 IR Inten    --      1.7684                 3.1425                13.0788

                     16                     17                     18
                      A                      A                      A
 Frequencies --    751.6001               804.8593               858.6664
 Red. masses --      1.4199                 3.2221                 1.1230
 Frc consts  --      0.4726                 1.2298                 0.4878
 IR Inten    --      8.5641                 3.9347                38.6795

                     19                     20                     21
                      A                      A                      A
 Frequencies --    948.2529               958.5786               971.4871
 Red. masses --      1.9457                 1.4074                 1.7627
 Frc consts  --      1.0308                 0.7619                 0.9802
 IR Inten    --     45.5958                 7.7455                25.7781

                     22                     23                     24
                      A                      A                      A
 Frequencies --   1016.4404              1031.9672              1037.9544
 Red. masses --      1.1588                 1.9843                 1.3500
 Frc consts  --      0.7054                 1.2451                 0.8569
 IR Inten    --     56.8771                 1.1615                28.7101

                     25                     26                     27
                      A                      A                      A
 Frequencies --   1094.1655              1124.7980              1131.9760
 Red. masses --      1.5197                 1.2786                 1.8873
 Frc consts  --      1.0720                 0.9531                 1.4249
 IR Inten    --      1.3554                 1.4286                27.9331

                     28                     29                     30
                      A                      A                      A
 Frequencies --   1178.5840              1204.2755              1241.1510
 Red. masses --      3.0177                 1.8916                 1.3245
 Frc consts  --      2.4697                 1.6163                 1.2021
 IR Inten    --    117.3174                 2.9721                18.2992

                     31                     32                     33
                      A                      A                      A
 Frequencies --   1339.7136              1346.9816              1394.3447
 Red. masses --      1.1485                 1.3261                 1.2545
 Frc consts  --      1.2145                 1.4176                 1.4370
 IR Inten    --      1.6753                 4.8892                15.0124

                     34                     35                     36
                      A                      A                      A
 Frequencies --   1412.9027              1428.5263              1438.9590
 Red. masses --      1.1860                 1.1756                 1.0930
 Frc consts  --      1.3950                 1.4134                 1.3334
 IR Inten    --      4.6752                 2.7242                19.5633

                     37                     38                     39
                      A                      A                      A
 Frequencies --   1455.0260              1458.9422              1475.0646
 Red. masses --      1.0495                 1.1448                 1.0423
 Frc consts  --      1.3091                 1.4357                 1.3362
 IR Inten    --     28.8584                 8.0135                 1.1492

                     40                     41                     42
                      A                      A                      A
 Frequencies --   1479.7405              1748.0122              1806.5552
 Red. masses --      1.0706                 4.8756                 7.7032
 Frc consts  --      1.3812                 8.7773                14.8123
 IR Inten    --     11.9568               100.5729                31.8607

                     43                     44                     45
                      A                      A                      A
 Frequencies --   2970.8933              3016.5813              3064.7063
 Red. masses --      1.0567                 1.0999                 1.0391
 Frc consts  --      5.4953                 5.8970                 5.7504
 IR Inten    --     72.0708               109.5873                 1.4853

                     46                     47                     48
                      A                      A                      A
 Frequencies --   3075.1344              3103.4663              3155.6712
 Red. masses --      1.0332                 1.0748                 1.1024
 Frc consts  --      5.7566                 6.0993                 6.4678
 IR Inten    --     20.4408               110.0412                 0.4123

                     49                     50                     51
                      A                      A                      A
 Frequencies --   3186.9518              3194.5163              3195.9755
 Red. masses --      1.1068                 1.1057                 1.1051
 Frc consts  --      6.6232                 6.6481                 6.6507
 IR Inten    --     13.6260                 7.1620                 4.4946

                     52                     53                     54
                      A                      A                      A
 Frequencies --   3222.8768              3223.3232              3267.6387
 Red. masses --      1.0922                 1.0981                 1.1124
 Frc consts  --      6.6839                 6.7218                 6.9984
 IR Inten    --      0.8742                21.7711                 9.5251

 - Thermochemistry -
 -------------------
 Temperature   298.150 Kelvin.  Pressure   1.00000 Atm.
 Atom     1 has atomic number  6 and mass  12.00000

 Molecular mass:   117.09538 amu.
 Principal axes and moments of inertia in atomic units:
                           1         2         3
     Eigenvalues --   782.085531390.588961575.91541
           X            0.99876   0.02159   0.04488
           Y           -0.01899   0.99816  -0.05754
           Z           -0.04604   0.05662   0.99733
 This molecule is an asymmetric top.
 Rotational symmetry number  1.
 Warning -- assumption of classical behavior for rotation
           may cause significant error
 Rotational temperatures (Kelvin)      0.11075     0.06229     0.05496
 Rotational constants (GHZ):           2.30760     1.29783     1.14520
    1 imaginary frequencies ignored.
 Zero-point vibrational energy     445142.4 (Joules/Mol)
                                  106.39160 (Kcal/Mol)
 Warning -- explicit consideration of  14 degrees of freedom as
           vibrations may cause significant error
 Vibrational temperatures:     68.18   106.16   116.32   168.86   184.61
          (Kelvin)            208.28   226.76   265.38   438.77   476.72
                              650.94   700.08   755.55   819.82  1081.38
                             1158.01  1235.43  1364.32  1379.18  1397.75
                             1462.43  1484.77  1493.38  1574.26  1618.33
                             1628.66  1695.72  1732.68  1785.74  1927.55
                             1938.01  2006.15  2032.85  2055.33  2070.34
                             2093.46  2099.09  2122.29  2129.02  2515.00
                             2599.23  4274.45  4340.19  4409.43  4424.43
                             4465.20  4540.31  4585.31  4596.20  4598.30
                             4637.00  4637.64  4701.40

 Zero-point correction=                           0.169546 (Hartree/Particle)
 Thermal correction to Energy=                    0.180357
 Thermal correction to Enthalpy=                  0.181302
 Thermal correction to Gibbs Free Energy=         0.132567
 Sum of electronic and zero-point Energies=           -389.729942
 Sum of electronic and thermal Energies=              -389.719130
 Sum of electronic and thermal Enthalpies=            -389.718186
 Sum of electronic and thermal Free Energies=         -389.766921

                     E (Thermal)             CV                S
                      KCal/Mol        Cal/Mol-Kelvin    Cal/Mol-Kelvin
 Total                  113.176             36.289            102.572
 Electronic               0.000              0.000              0.000
 Translational            0.889              2.981             40.188
 Rotational               0.889              2.981             28.929
 Vibrational            111.399             30.328             33.454
 Vibration     1          0.595              1.979              4.923
 Vibration     2          0.599              1.966              4.050
 Vibration     3          0.600              1.962              3.870
 Vibration     4          0.608              1.935              3.143
 Vibration     5          0.611              1.925              2.971
 Vibration     6          0.616              1.908              2.740
 Vibration     7          0.621              1.894              2.578
 Vibration     8          0.631              1.861              2.283
 Vibration     9          0.696              1.664              1.390
 Vibration    10          0.714              1.613              1.254
 Vibration    11          0.811              1.356              0.788
 Vibration    12          0.843              1.280              0.693
 Vibration    13          0.880              1.194              0.598
 Vibration    14          0.926              1.097              0.505

 Normal termination of Gaussian 16 at Sat Dec 30 20:49:48 2023.
