 Gaussian 16, Revision C.01,
 Gaussian 16:  ES64L-G16RevC.01  3-Jul-2019

 -----------------------------------------------------------
 # wb97xd def2svp scrf=(iefpcm,solvent=toluene) freq=noraman
 -----------------------------------------------------------

 -----------------------------
 allylic-1_1_opt_sqm_reopt.out
 -----------------------------
 Symbolic Z-matrix:
 Charge =  0 Multiplicity = 1

                         Standard orientation:
 ---------------------------------------------------------------------
 Center     Atomic      Atomic             Coordinates (Angstroms)
 Number     Number       Type             X           Y           Z
 ---------------------------------------------------------------------
      1          6           0        0.923631    0.458009   -0.940480
      2          6           0       -2.395950    0.199704    0.265030
      3          6           0        0.975637   -1.893981   -0.527400
      4          6           0       -2.288111   -0.684676   -0.714190
      5          7           0        1.240209   -0.486722   -0.134110
      6          1           0       -3.150151   -0.837044   -1.365620
      7          1           0        0.312416   -2.258280    0.287780
      8          1           0       -3.278158    0.804466    0.492110
      9          1           0        1.938386   -2.413323   -0.334480
     10          1           0        0.534980    0.090759   -1.895010
     11          1           0       -1.371692   -1.266867   -0.888440
     12          9           0       -1.388359    0.459703    1.118890
     13          6           0        1.016863    1.918389   -0.662230
     14          1           0        2.052244    2.224827   -0.446520
     15          1           0        0.660844    2.488349   -1.527850
     16          1           0        0.396314    2.177550    0.209210
     17          6           0        1.771480   -0.206873    1.198120
     18          1           0        2.626729   -0.872534    1.366980
     19          1           0        2.082102    0.837757    1.328200
     20          1           0        0.988449   -0.449361    1.929310
 ---------------------------------------------------------------------

 SCF Done:  E(RwB97XD) =  -389.899487295     A.U. after   16 cycles

 The electronic state is 1-A.
 Alpha  occ. eigenvalues --  -24.82783 -14.52797 -10.37907 -10.37702 -10.34001
 Alpha  occ. eigenvalues --  -10.32438 -10.29223 -10.23170  -1.31072  -1.08263
 Alpha  occ. eigenvalues --   -0.87366  -0.85641  -0.82209  -0.74816  -0.69451
 Alpha  occ. eigenvalues --   -0.65607  -0.61752  -0.58437  -0.57669  -0.56359
 Alpha  occ. eigenvalues --   -0.56198  -0.55561  -0.51702  -0.49765  -0.48712
 Alpha  occ. eigenvalues --   -0.48440  -0.46087  -0.45171  -0.44299  -0.37055
 Alpha  occ. eigenvalues --   -0.34607  -0.22341
 Alpha virt. eigenvalues --    0.02600   0.09011   0.13261   0.16439   0.16692
 Alpha virt. eigenvalues --    0.17042   0.19363   0.20792   0.21178   0.21585
 Alpha virt. eigenvalues --    0.22621   0.22914   0.24364   0.25106   0.27206

 Mulliken charges:
               1
     1  C    0.046786
     2  C    0.148803
     3  C   -0.301870
     4  C   -0.155871
     5  N   -0.189695
     6  H    0.070738
     7  H   -0.019072
     8  H    0.056129
     9  H   -0.031163
    10  H    0.082501
    11  H    0.074731
    12  F   -0.231004
    13  C   -0.066320
    14  H    0.094102
    15  H    0.076495
    16  H    0.089889
    17  C    0.052850
    18  H    0.071132
    19  H    0.049530
    20  H    0.081307
 Sum of Mulliken charges =  -0.00000

 Dipole moment (field-independent basis, Debye):
    X=              0.2878    Y=              5.8872    Z=              1.6035  Tot=              6.1084
 Quadrupole moment (field-independent basis, Debye-Ang):
   XX=            -41.7794   YY=            -56.7124   ZZ=            -50.8872
   XY=              3.7428   XZ=              4.0238   YZ=             -6.6436

  Exact polarizability:      78.839      -4.301      97.531       7.477       1.732      80.659
 Approx polarizability:      71.414      -3.647      90.282       5.967       3.195      81.741

 ******    1 imaginary frequencies (negative Signs) ******

                      1                      2                      3
                      A                      A                      A
 Frequencies --   -360.2420                47.4233                73.7212
 Red. masses --      1.0887                 3.8056                 3.4017
 Frc consts  --      0.0832                 0.0050                 0.0109
 IR Inten    --     61.4231                 5.8195                21.4349

                      4                      5                      6
                      A                      A                      A
 Frequencies --     80.7051               117.2607               128.2627
 Red. masses --      2.4665                 5.0697                 1.2121
 Frc consts  --      0.0095                 0.0411                 0.0117
 IR Inten    --      1.2082                 0.3472                 0.2975

                      7                      8                      9
                      A                      A                      A
 Frequencies --    144.6257               157.4068               184.3449
 Red. masses --      1.4808                 2.0500                 2.1425
 Frc consts  --      0.0182                 0.0299                 0.0429
 IR Inten    --      1.8863                12.5400                 3.4679

                     10                     11                     12
                      A                      A                      A
 Frequencies --    304.7957               331.2086               452.4006
 Red. masses --      2.5404                 2.6716                 2.6346
 Frc consts  --      0.1391                 0.1727                 0.3177
 IR Inten    --     23.7047                 4.9525                11.4471

                     13                     14                     15
                      A                      A                      A
 Frequencies --    486.5542               525.0951               569.8138
 Red. masses --      2.4198                 2.5066                 3.2130
 Frc consts  --      0.3375                 0.4072                 0.6146
 IR Inten    --      1.7726                 3.1420                13.0662

                     16                     17                     18
                      A                      A                      A
 Frequencies --    751.6425               804.8509               858.5905
 Red. masses --      1.4197                 3.2220                 1.1230
 Frc consts  --      0.4726                 1.2297                 0.4878
 IR Inten    --      8.5772                 3.9324                38.6654

                     19                     20                     21
                      A                      A                      A
 Frequencies --    948.2423               958.5866               971.4823
 Red. masses --      1.9458                 1.4077                 1.7625
 Frc consts  --      1.0308                 0.7621                 0.9801
 IR Inten    --     45.6224                 7.8000                25.7061

                     22                     23                     24
                      A                      A                      A
 Frequencies --   1016.4175              1031.9615              1037.9212
 Red. masses --      1.1587                 1.9812                 1.3516
 Frc consts  --      0.7053                 1.2431                 0.8579
 IR Inten    --     56.8090                 1.1960                28.6341

                     25                     26                     27
                      A                      A                      A
 Frequencies --   1094.1532              1124.7358              1131.9508
 Red. masses --      1.5201                 1.2786                 1.8873
 Frc consts  --      1.0722                 0.9530                 1.4247
 IR Inten    --      1.3472                 1.4942                27.8832

                     28                     29                     30
                      A                      A                      A
 Frequencies --   1178.5834              1204.2523              1241.1871
 Red. masses --      3.0176                 1.8917                 1.3244
 Frc consts  --      2.4696                 1.6163                 1.2021
 IR Inten    --    117.3278                 2.9615                18.2911

                     31                     32                     33
                      A                      A                      A
 Frequencies --   1339.7233              1346.9711              1394.3426
 Red. masses --      1.1485                 1.3262                 1.2543
 Frc consts  --      1.2146                 1.4177                 1.4368
 IR Inten    --      1.6752                 4.8789                15.0016

                     34                     35                     36
                      A                      A                      A
 Frequencies --   1412.8532              1428.5128              1438.9287
 Red. masses --      1.1861                 1.1757                 1.0929
 Frc consts  --      1.3950                 1.4136                 1.3333
 IR Inten    --      4.6713                 2.7145                19.6001

                     37                     38                     39
                      A                      A                      A
 Frequencies --   1454.9891              1458.9404              1475.0592
 Red. masses --      1.0502                 1.1437                 1.0425
 Frc consts  --      1.3099                 1.4343                 1.3365
 IR Inten    --     28.5606                 8.3041                 1.3302

                     40                     41                     42
                      A                      A                      A
 Frequencies --   1479.6792              1748.0142              1806.5819
 Red. masses --      1.0704                 4.8759                 7.7035
 Frc consts  --      1.3808                 8.7780                14.8133
 IR Inten    --     11.7965               100.5692                31.8689

                     43                     44                     45
                      A                      A                      A
 Frequencies --   2970.7826              3016.4721              3064.5935
 Red. masses --      1.0567                 1.0999                 1.0392
 Frc consts  --      5.4949                 5.8965                 5.7501
 IR Inten    --     72.1033               109.5757                 1.4795

                     46                     47                     48
                      A                      A                      A
 Frequencies --   3075.1198              3103.3758              3155.5066
 Red. masses --      1.0332                 1.0748                 1.1024
 Frc consts  --      5.7565                 6.0989                 6.4672
 IR Inten    --     20.4355               110.2547                 0.4102

                     49                     50                     51
                      A                      A                      A
 Frequencies --   3186.9495              3194.5775              3196.0262
 Red. masses --      1.1068                 1.1059                 1.1049
 Frc consts  --      6.6231                 6.6495                 6.6497
 IR Inten    --     13.5941                 7.4466                 4.2325

                     52                     53                     54
                      A                      A                      A
 Frequencies --   3222.9502              3223.2184              3267.5795
 Red. masses --      1.0926                 1.0977                 1.1125
 Frc consts  --      6.6866                 6.7190                 6.9983
 IR Inten    --      1.9464                20.7343                 9.5719

 - Thermochemistry -
 -------------------
 Temperature   298.150 Kelvin.  Pressure   1.00000 Atm.
 Atom     1 has atomic number  6 and mass  12.00000

 Molecular mass:   117.09538 amu.
 Principal axes and moments of inertia in atomic units:
                           1         2         3
     Eigenvalues --   781.993891390.801271576.31771
           X            0.99876   0.02163   0.04482
           Y           -0.01903   0.99816  -0.05755
           Z           -0.04598   0.05663   0.99734
 This molecule is an asymmetric top.
 Rotational symmetry number  1.
 Warning -- assumption of classical behavior for rotation
           may cause significant error
 Rotational temperatures (Kelvin)      0.11076     0.06228     0.05495
 Rotational constants (GHZ):           2.30787     1.29763     1.14491
    1 imaginary frequencies ignored.
 Zero-point vibrational energy     445130.0 (Joules/Mol)
                                  106.38862 (Kcal/Mol)
 Warning -- explicit consideration of  14 degrees of freedom as
           vibrations may cause significant error
 Vibrational temperatures:     68.23   106.07   116.12   168.71   184.54
          (Kelvin)            208.08   226.47   265.23   438.53   476.54
                              650.90   700.04   755.49   819.84  1081.45
                             1158.00  1235.32  1364.31  1379.19  1397.75
                             1462.40  1484.76  1493.34  1574.24  1618.24
                             1628.62  1695.72  1732.65  1785.79  1927.56
                             1937.99  2006.15  2032.78  2055.31  2070.30
                             2093.40  2099.09  2122.28  2128.93  2515.00
                             2599.27  4274.29  4340.03  4409.27  4424.41
                             4465.07  4540.07  4585.31  4596.28  4598.37
                             4637.11  4637.49  4701.32

 Zero-point correction=                           0.169541 (Hartree/Particle)
 Thermal correction to Energy=                    0.180355
 Thermal correction to Enthalpy=                  0.181299
 Thermal correction to Gibbs Free Energy=         0.132557
 Sum of electronic and zero-point Energies=           -389.729946
 Sum of electronic and thermal Energies=              -389.719133
 Sum of electronic and thermal Enthalpies=            -389.718189
 Sum of electronic and thermal Free Energies=         -389.766930

                     E (Thermal)             CV                S
                      KCal/Mol        Cal/Mol-Kelvin    Cal/Mol-Kelvin
 Total                  113.174             36.291            102.585
 Electronic               0.000              0.000              0.000
 Translational            0.889              2.981             40.188
 Rotational               0.889              2.981             28.929
 Vibrational            111.397             30.329             33.467
 Vibration     1          0.595              1.979              4.922
 Vibration     2          0.599              1.966              4.051
 Vibration     3          0.600              1.962              3.874
 Vibration     4          0.608              1.935              3.145
 Vibration     5          0.611              1.925              2.972
 Vibration     6          0.616              1.908              2.742
 Vibration     7          0.621              1.894              2.581
 Vibration     8          0.631              1.861              2.284
 Vibration     9          0.696              1.665              1.390
 Vibration    10          0.714              1.613              1.254
 Vibration    11          0.811              1.356              0.789
 Vibration    12          0.843              1.280              0.693
 Vibration    13          0.880              1.194              0.598
 Vibration    14          0.926              1.097              0.505

 Normal termination of Gaussian 16 at Sat Dec 30 20:49:48 2023.
