 Gaussian 16, Revision C.01,
 Gaussian 16:  ES64L-G16RevC.01  3-Jul-2019

 ----------------------------------------------------------------------
 # wb97xd chkbasis guess=read geom=allchk scrf=(iefpcm,solvent=toluene)
  opt=(readfc,ts,noeigen,maxcycles=50,maxstep=10)
 ----------------------------------------------------------------------

 Structure from the checkpoint file:  "allylic-1_1_opt_dft.chk"
 ---------------------
 allyl_ts_46_reopt.out
 ---------------------
 Charge =  0 Multiplicity = 1

 SCF Done:  E(RwB97XD) =  -389.899448602     A.U. after    1 cycles
 SCF Done:  E(RwB97XD) =  -389.899473000     A.U. after   12 cycles
 SCF Done:  E(RwB97XD) =  -389.899479391     A.U. after   12 cycles
 SCF Done:  E(RwB97XD) =  -389.899481607     A.U. after   12 cycles
 SCF Done:  E(RwB97XD) =  -389.899484454     A.U. after   11 cycles
 SCF Done:  E(RwB97XD) =  -389.899439779     A.U. after   13 cycles
 SCF Done:  E(RwB97XD) =  -389.899405633     A.U. after   13 cycles
 SCF Done:  E(RwB97XD) =  -389.899484913     A.U. after   13 cycles
 SCF Done:  E(RwB97XD) =  -389.899328211     A.U. after   14 cycles
 SCF Done:  E(RwB97XD) =  -389.899480035     A.U. after   13 cycles
 SCF Done:  E(RwB97XD) =  -389.899034588     A.U. after   16 cycles
 SCF Done:  E(RwB97XD) =  -389.899447326     A.U. after   15 cycles
 SCF Done:  E(RwB97XD) =  -389.899482035     A.U. after   13 cycles
 SCF Done:  E(RwB97XD) =  -389.899366767     A.U. after   13 cycles
 SCF Done:  E(RwB97XD) =  -389.899483721     A.U. after   14 cycles
 SCF Done:  E(RwB97XD) =  -389.899485586     A.U. after   12 cycles
 SCF Done:  E(RwB97XD) =  -389.899486576     A.U. after    9 cycles
 SCF Done:  E(RwB97XD) =  -389.899487107     A.U. after   11 cycles
 SCF Done:  E(RwB97XD) =  -389.899487917     A.U. after   11 cycles
 SCF Done:  E(RwB97XD) =  -389.899487483     A.U. after   11 cycles
 Optimization completed.
    -- Stationary point found.

                         Standard orientation:
 ---------------------------------------------------------------------
 Center     Atomic      Atomic             Coordinates (Angstroms)
 Number     Number       Type             X           Y           Z
 ---------------------------------------------------------------------
      1          6           0       -0.923362   -0.458359   -0.940459
      2          6           0        2.395452   -0.199262    0.264895
      3          6           0       -0.976564    1.893659   -0.527875
      4          6           0        2.287283    0.684672   -0.714692
      5          7           0       -1.240171    0.486356   -0.134149
      6          1           0        3.148886    0.836058   -1.366917
      7          1           0       -0.312893    2.258575    0.286661
      8          1           0        3.277558   -0.804320    0.491507
      9          1           0       -1.939427    2.412550   -0.334336
     10          1           0       -0.535014   -0.091017   -1.895074
     11          1           0        1.371121    1.267295   -0.888868
     12          9           0        1.388428   -0.458442    1.119668
     13          6           0       -1.015862   -1.918744   -0.662076
     14          1           0       -0.661557   -2.488679   -1.528451
     15          1           0       -0.393398   -2.177731    0.208041
     16          1           0       -2.050678   -2.225425   -0.444126
     17          6           0       -1.770937    0.206535    1.198287
     18          1           0       -2.626987    0.871224    1.366918
     19          1           0       -2.080232   -0.838418    1.328980
     20          1           0       -0.988096    0.450369    1.929210
 ---------------------------------------------------------------------

 The electronic state is 1-A.
 Alpha  occ. eigenvalues --  -24.82785 -14.52797 -10.37909 -10.37702 -10.34000
 Alpha  occ. eigenvalues --  -10.32438 -10.29225 -10.23170  -1.31074  -1.08262
 Alpha  occ. eigenvalues --   -0.87366  -0.85644  -0.82209  -0.74816  -0.69453
 Alpha  occ. eigenvalues --   -0.65607  -0.61754  -0.58437  -0.57670  -0.56362
 Alpha  occ. eigenvalues --   -0.56199  -0.55562  -0.51703  -0.49765  -0.48712
 Alpha  occ. eigenvalues --   -0.48441  -0.46088  -0.45170  -0.44299  -0.37055
 Alpha  occ. eigenvalues --   -0.34609  -0.22340
 Alpha virt. eigenvalues --    0.02601   0.09009   0.13262   0.16437   0.16692
 Alpha virt. eigenvalues --    0.17040   0.19362   0.20794   0.21179   0.21586
 Alpha virt. eigenvalues --    0.22624   0.22912   0.24365   0.25106   0.27207

 Mulliken charges:
               1
     1  C    0.046765
     2  C    0.148824
     3  C   -0.301926
     4  C   -0.155869
     5  N   -0.189677
     6  H    0.070738
     7  H   -0.019044
     8  H    0.056139
     9  H   -0.031193
    10  H    0.082484
    11  H    0.074755
    12  F   -0.230992
    13  C   -0.066276
    14  H    0.076497
    15  H    0.089897
    16  H    0.094070
    17  C    0.052869
    18  H    0.071141
    19  H    0.049507
    20  H    0.081291
 Sum of Mulliken charges =  -0.00000

 Dipole moment (field-independent basis, Debye):
    X=             -0.2827    Y=             -5.8883    Z=              1.6043  Tot=              6.1095
 Quadrupole moment (field-independent basis, Debye-Ang):
   XX=            -41.7914   YY=            -56.7079   ZZ=            -50.8913
   XY=              3.7461   XZ=             -4.0332   YZ=              6.6455

 Normal termination of Gaussian 16 at Fri Dec 22 22:59:20 2023.
