 Gaussian 16, Revision C.01,
 Gaussian 16:  ES64L-G16RevC.01  3-Jul-2019

 -----------------------------------------------------------
 # wb97xd def2svp scrf=(iefpcm,solvent=toluene) freq=noraman
 -----------------------------------------------------------

 ----------------------------
 allylic-1_1_opt_hf_reopt.out
 ----------------------------
 Symbolic Z-matrix:
 Charge =  0 Multiplicity = 1

                         Standard orientation:
 ---------------------------------------------------------------------
 Center     Atomic      Atomic             Coordinates (Angstroms)
 Number     Number       Type             X           Y           Z
 ---------------------------------------------------------------------
      1          6           0        0.923581    0.458118   -0.940451
      2          6           0       -2.396170    0.199544    0.265179
      3          6           0        0.976156   -1.893872   -0.527561
      4          6           0       -2.288502   -0.684696   -0.714181
      5          7           0        1.240479   -0.486612   -0.134161
      6          1           0       -3.150532   -0.836804   -1.365671
      7          1           0        0.312785   -2.258291    0.287429
      8          1           0       -3.278279    0.804376    0.492389
      9          1           0        1.938895   -2.413144   -0.334401
     10          1           0        0.534760    0.090799   -1.894881
     11          1           0       -1.372233   -1.267038   -0.888521
     12          9           0       -1.388439    0.459302    1.118959
     13          6           0        1.016573    1.918498   -0.662191
     14          1           0        0.661894    2.488469   -1.528391
     15          1           0        0.394674    2.177669    0.208269
     16          1           0        2.051594    2.224946   -0.444891
     17          6           0        1.771819   -0.206723    1.198029
     18          1           0        2.626958   -0.872505    1.366939
     19          1           0        2.082591    0.837876    1.328019
     20          1           0        0.988749   -0.449002    1.929239
 ---------------------------------------------------------------------

 SCF Done:  E(RwB97XD) =  -389.899487301     A.U. after   16 cycles

 The electronic state is 1-A.
 Alpha  occ. eigenvalues --  -24.82784 -14.52797 -10.37909 -10.37701 -10.34000
 Alpha  occ. eigenvalues --  -10.32437 -10.29225 -10.23169  -1.31073  -1.08261
 Alpha  occ. eigenvalues --   -0.87366  -0.85643  -0.82209  -0.74816  -0.69452
 Alpha  occ. eigenvalues --   -0.65607  -0.61754  -0.58437  -0.57669  -0.56361
 Alpha  occ. eigenvalues --   -0.56198  -0.55562  -0.51702  -0.49765  -0.48712
 Alpha  occ. eigenvalues --   -0.48441  -0.46088  -0.45171  -0.44300  -0.37053
 Alpha  occ. eigenvalues --   -0.34608  -0.22340
 Alpha virt. eigenvalues --    0.02601   0.09010   0.13261   0.16437   0.16691
 Alpha virt. eigenvalues --    0.17040   0.19359   0.20794   0.21179   0.21586
 Alpha virt. eigenvalues --    0.22629   0.22913   0.24364   0.25105   0.27205

 Mulliken charges:
               1
     1  C    0.046772
     2  C    0.148826
     3  C   -0.301920
     4  C   -0.155847
     5  N   -0.189696
     6  H    0.070750
     7  H   -0.019071
     8  H    0.056142
     9  H   -0.031183
    10  H    0.082491
    11  H    0.074750
    12  F   -0.231002
    13  C   -0.066290
    14  H    0.076497
    15  H    0.089894
    16  H    0.094071
    17  C    0.052876
    18  H    0.071126
    19  H    0.049511
    20  H    0.081303
 Sum of Mulliken charges =  -0.00000

 Dipole moment (field-independent basis, Debye):
    X=              0.2848    Y=              5.8877    Z=              1.6044  Tot=              6.1090
 Quadrupole moment (field-independent basis, Debye-Ang):
   XX=            -41.7797   YY=            -56.7113   ZZ=            -50.8889
   XY=              3.7450   XZ=              4.0273   YZ=             -6.6436

  Exact polarizability:      78.839      -4.307      97.538       7.483       1.734      80.659
 Approx polarizability:      71.412      -3.652      90.284       5.972       3.196      81.741

 ******    1 imaginary frequencies (negative Signs) ******

                      1                      2                      3
                      A                      A                      A
 Frequencies --   -360.4154                47.3731                73.6325
 Red. masses --      1.0886                 3.8053                 3.3767
 Frc consts  --      0.0833                 0.0050                 0.0108
 IR Inten    --     61.4671                 5.8238                21.5434

                      4                      5                      6
                      A                      A                      A
 Frequencies --     80.6120               117.2595               128.0249
 Red. masses --      2.4795                 5.0211                 1.2144
 Frc consts  --      0.0095                 0.0407                 0.0117
 IR Inten    --      1.1018                 0.3506                 0.2844

                      7                      8                      9
                      A                      A                      A
 Frequencies --    144.4554               157.2213               184.1630
 Red. masses --      1.4786                 2.0573                 2.1416
 Frc consts  --      0.0182                 0.0300                 0.0428
 IR Inten    --      1.8847                12.5914                 3.4370

                     10                     11                     12
                      A                      A                      A
 Frequencies --    304.8204               331.3673               452.4291
 Red. masses --      2.5395                 2.6714                 2.6344
 Frc consts  --      0.1390                 0.1728                 0.3177
 IR Inten    --     23.6469                 4.9851                11.4343

                     13                     14                     15
                      A                      A                      A
 Frequencies --    486.5551               525.0878               569.8171
 Red. masses --      2.4200                 2.5064                 3.2129
 Frc consts  --      0.3375                 0.4072                 0.6146
 IR Inten    --      1.7724                 3.1415                13.0724

                     16                     17                     18
                      A                      A                      A
 Frequencies --    751.5831               804.8722               858.5781
 Red. masses --      1.4199                 3.2221                 1.1230
 Frc consts  --      0.4726                 1.2298                 0.4878
 IR Inten    --      8.5607                 3.9348                38.6971

                     19                     20                     21
                      A                      A                      A
 Frequencies --    948.2087               958.5320               971.4594
 Red. masses --      1.9459                 1.4078                 1.7621
 Frc consts  --      1.0308                 0.7621                 0.9798
 IR Inten    --     45.6202                 7.8034                25.7557

                     22                     23                     24
                      A                      A                      A
 Frequencies --   1016.2995              1031.9577              1037.9219
 Red. masses --      1.1580                 1.9791                 1.3537
 Frc consts  --      0.7047                 1.2418                 0.8592
 IR Inten    --     56.9635                 1.1928                28.4955

                     25                     26                     27
                      A                      A                      A
 Frequencies --   1094.1337              1124.7252              1131.9656
 Red. masses --      1.5200                 1.2786                 1.8873
 Frc consts  --      1.0721                 0.9530                 1.4248
 IR Inten    --      1.3559                 1.4221                27.9578

                     28                     29                     30
                      A                      A                      A
 Frequencies --   1178.5512              1204.2909              1241.1680
 Red. masses --      3.0176                 1.8914                 1.3244
 Frc consts  --      2.4695                 1.6162                 1.2020
 IR Inten    --    117.3660                 2.9689                18.2935

                     31                     32                     33
                      A                      A                      A
 Frequencies --   1339.6882              1346.9536              1394.3032
 Red. masses --      1.1485                 1.3262                 1.2545
 Frc consts  --      1.2145                 1.4176                 1.4370
 IR Inten    --      1.6693                 4.8850                15.0088

                     34                     35                     36
                      A                      A                      A
 Frequencies --   1412.8435              1428.4945              1438.9194
 Red. masses --      1.1860                 1.1754                 1.0930
 Frc consts  --      1.3949                 1.4132                 1.3334
 IR Inten    --      4.6674                 2.7277                19.5807

                     37                     38                     39
                      A                      A                      A
 Frequencies --   1455.0123              1458.9454              1475.0326
 Red. masses --      1.0495                 1.1448                 1.0423
 Frc consts  --      1.3091                 1.4356                 1.3361
 IR Inten    --     28.7800                 8.0475                 1.1329

                     40                     41                     42
                      A                      A                      A
 Frequencies --   1479.7495              1748.0241              1806.4567
 Red. masses --      1.0706                 4.8762                 7.7021
 Frc consts  --      1.3813                 8.7786                14.8086
 IR Inten    --     12.0014               100.5903                31.8378

                     43                     44                     45
                      A                      A                      A
 Frequencies --   2970.8548              3016.5057              3064.7106
 Red. masses --      1.0567                 1.0999                 1.0391
 Frc consts  --      5.4951                 5.8967                 5.7504
 IR Inten    --     72.1451               109.5458                 1.4864

                     46                     47                     48
                      A                      A                      A
 Frequencies --   3075.1415              3103.6601              3155.7017
 Red. masses --      1.0332                 1.0748                 1.1024
 Frc consts  --      5.7566                 6.0999                 6.4680
 IR Inten    --     20.4381               109.7783                 0.4134

                     49                     50                     51
                      A                      A                      A
 Frequencies --   3186.9558              3194.5053              3195.9738
 Red. masses --      1.1068                 1.1056                 1.1052
 Frc consts  --      6.6232                 6.6477                 6.6511
 IR Inten    --     13.6318                 7.0617                 4.5714

                     52                     53                     54
                      A                      A                      A
 Frequencies --   3222.9621              3223.3594              3267.6959
 Red. masses --      1.0922                 1.0980                 1.1125
 Frc consts  --      6.6846                 6.7217                 6.9988
 IR Inten    --      1.0255                21.6269                 9.5464

 - Thermochemistry -
 -------------------
 Temperature   298.150 Kelvin.  Pressure   1.00000 Atm.
 Atom     1 has atomic number  6 and mass  12.00000

 Molecular mass:   117.09538 amu.
 Principal axes and moments of inertia in atomic units:
                           1         2         3
     Eigenvalues --   781.968961391.069071576.55408
           X            0.99876   0.02160   0.04482
           Y           -0.01901   0.99816  -0.05752
           Z           -0.04598   0.05660   0.99734
 This molecule is an asymmetric top.
 Rotational symmetry number  1.
 Warning -- assumption of classical behavior for rotation
           may cause significant error
 Rotational temperatures (Kelvin)      0.11076     0.06226     0.05494
 Rotational constants (GHZ):           2.30794     1.29738     1.14474
    1 imaginary frequencies ignored.
 Zero-point vibrational energy     445127.6 (Joules/Mol)
                                  106.38804 (Kcal/Mol)
 Warning -- explicit consideration of  14 degrees of freedom as
           vibrations may cause significant error
 Vibrational temperatures:     68.16   105.94   115.98   168.71   184.20
          (Kelvin)            207.84   226.21   264.97   438.57   476.76
                              650.94   700.04   755.48   819.84  1081.36
                             1158.03  1235.30  1364.26  1379.11  1397.71
                             1462.23  1484.76  1493.34  1574.21  1618.23
                             1628.65  1695.67  1732.71  1785.76  1927.51
                             1937.97  2006.09  2032.77  2055.28  2070.28
                             2093.44  2099.10  2122.24  2129.03  2515.02
                             2599.09  4274.40  4340.08  4409.44  4424.44
                             4465.47  4540.35  4585.32  4596.18  4598.29
                             4637.12  4637.70  4701.49

 Zero-point correction=                           0.169540 (Hartree/Particle)
 Thermal correction to Energy=                    0.180355
 Thermal correction to Enthalpy=                  0.181299
 Thermal correction to Gibbs Free Energy=         0.132550
 Sum of electronic and zero-point Energies=           -389.729947
 Sum of electronic and thermal Energies=              -389.719132
 Sum of electronic and thermal Enthalpies=            -389.718188
 Sum of electronic and thermal Free Energies=         -389.766937

                     E (Thermal)             CV                S
                      KCal/Mol        Cal/Mol-Kelvin    Cal/Mol-Kelvin
 Total                  113.175             36.292            102.601
 Electronic               0.000              0.000              0.000
 Translational            0.889              2.981             40.188
 Rotational               0.889              2.981             28.929
 Vibrational            111.397             30.330             33.483
 Vibration     1          0.595              1.979              4.924
 Vibration     2          0.599              1.966              4.054
 Vibration     3          0.600              1.962              3.876
 Vibration     4          0.608              1.935              3.145
 Vibration     5          0.611              1.925              2.976
 Vibration     6          0.616              1.909              2.744
 Vibration     7          0.621              1.895              2.583
 Vibration     8          0.631              1.861              2.286
 Vibration     9          0.696              1.665              1.390
 Vibration    10          0.714              1.613              1.253
 Vibration    11          0.811              1.356              0.788
 Vibration    12          0.843              1.280              0.693
 Vibration    13          0.880              1.194              0.598
 Vibration    14          0.926              1.097              0.505

 Normal termination of Gaussian 16 at Sat Dec 30 20:49:48 2023.
