 Gaussian 16, Revision C.01,
 Gaussian 16:  ES64L-G16RevC.01  3-Jul-2019

 -----------------------------------------------------------
 # wb97xd def2svp scrf=(iefpcm,solvent=toluene) freq=noraman
 -----------------------------------------------------------

 --------------------------
 allylic-1_1_opt_dft_re.out
 --------------------------
 Symbolic Z-matrix:
 Charge =  0 Multiplicity = 1

                         Standard orientation:
 ---------------------------------------------------------------------
 Center     Atomic      Atomic             Coordinates (Angstroms)
 Number     Number       Type             X           Y           Z
 ---------------------------------------------------------------------
      1          6           0        0.923501    0.458298   -0.940460
      2          6           0       -2.395529    0.199343    0.264830
      3          6           0        0.976548   -1.893722   -0.527820
      4          6           0       -2.287371   -0.684747   -0.714610
      5          7           0        1.240140   -0.486412   -0.134080
      6          1           0       -3.149021   -0.836336   -1.366730
      7          1           0        0.312747   -2.258601    0.286630
      8          1           0       -3.277658    0.804384    0.491420
      9          1           0        1.939367   -2.412653   -0.334140
     10          1           0        0.535271    0.090939   -1.895120
     11          1           0       -1.371181   -1.267348   -0.888730
     12          9           0       -1.388449    0.458742    1.119480
     13          6           0        1.016103    1.918688   -0.662140
     14          1           0        0.661784    2.488609   -1.528520
     15          1           0        0.393704    2.177759    0.208000
     16          1           0        2.050954    2.225307   -0.444270
     17          6           0        1.770790   -0.206603    1.198400
     18          1           0        2.627049   -0.871044    1.366960
     19          1           0        2.079762    0.838427    1.329240
     20          1           0        0.988030   -0.450782    1.929280
 ---------------------------------------------------------------------

 SCF Done:  E(RwB97XD) =  -389.899487487     A.U. after   16 cycles

 The electronic state is 1-A.
 Alpha  occ. eigenvalues --  -24.82785 -14.52797 -10.37909 -10.37702 -10.34000
 Alpha  occ. eigenvalues --  -10.32438 -10.29226 -10.23170  -1.31074  -1.08262
 Alpha  occ. eigenvalues --   -0.87366  -0.85644  -0.82209  -0.74816  -0.69453
 Alpha  occ. eigenvalues --   -0.65607  -0.61754  -0.58437  -0.57670  -0.56362
 Alpha  occ. eigenvalues --   -0.56199  -0.55562  -0.51703  -0.49765  -0.48712
 Alpha  occ. eigenvalues --   -0.48441  -0.46088  -0.45170  -0.44299  -0.37055
 Alpha  occ. eigenvalues --   -0.34609  -0.22340
 Alpha virt. eigenvalues --    0.02601   0.09009   0.13262   0.16438   0.16691
 Alpha virt. eigenvalues --    0.17040   0.19364   0.20794   0.21179   0.21585
 Alpha virt. eigenvalues --    0.22621   0.22912   0.24365   0.25106   0.27207

 Mulliken charges:
               1
     1  C    0.046770
     2  C    0.148827
     3  C   -0.301931
     4  C   -0.155865
     5  N   -0.189677
     6  H    0.070742
     7  H   -0.019045
     8  H    0.056142
     9  H   -0.031196
    10  H    0.082480
    11  H    0.074753
    12  F   -0.230999
    13  C   -0.066282
    14  H    0.076498
    15  H    0.089899
    16  H    0.094073
    17  C    0.052872
    18  H    0.071147
    19  H    0.049508
    20  H    0.081284
 Sum of Mulliken charges =  -0.00000

 Dipole moment (field-independent basis, Debye):
    X=              0.2827    Y=              5.8881    Z=              1.6043  Tot=              6.1093
 Quadrupole moment (field-independent basis, Debye-Ang):
   XX=            -41.7905   YY=            -56.7086   ZZ=            -50.8910
   XY=              3.7474   XZ=              4.0329   YZ=             -6.6458

  Exact polarizability:      78.832      -4.317      97.534       7.479       1.734      80.668
 Approx polarizability:      71.409      -3.661      90.283       5.968       3.196      81.752

 ******    1 imaginary frequencies (negative Signs) ******

                      1                      2                      3
                      A                      A                      A
 Frequencies --   -359.8380                47.4807                73.7738
 Red. masses --      1.0889                 3.8012                 3.4158
 Frc consts  --      0.0831                 0.0050                 0.0110
 IR Inten    --     61.4395                 5.8130                21.3951

                      4                      5                      6
                      A                      A                      A
 Frequencies --     80.9707               117.3952               128.4891
 Red. masses --      2.4476                 5.0026                 1.2145
 Frc consts  --      0.0095                 0.0406                 0.0118
 IR Inten    --      1.2838                 0.3508                 0.2899

                      7                      8                      9
                      A                      A                      A
 Frequencies --    144.8948               157.8050               184.4537
 Red. masses --      1.5071                 2.0150                 2.1419
 Frc consts  --      0.0186                 0.0296                 0.0429
 IR Inten    --      2.0493                12.3387                 3.4815

                     10                     11                     12
                      A                      A                      A
 Frequencies --    304.9417               331.4107               452.4577
 Red. masses --      2.5393                 2.6724                 2.6349
 Frc consts  --      0.1391                 0.1729                 0.3178
 IR Inten    --     23.6786                 4.9797                11.4391

                     13                     14                     15
                      A                      A                      A
 Frequencies --    486.5872               525.1410               569.8075
 Red. masses --      2.4198                 2.5069                 3.2130
 Frc consts  --      0.3376                 0.4073                 0.6146
 IR Inten    --      1.7693                 3.1433                13.0785

                     16                     17                     18
                      A                      A                      A
 Frequencies --    751.6082               804.8682               858.5993
 Red. masses --      1.4199                 3.2222                 1.1230
 Frc consts  --      0.4726                 1.2298                 0.4878
 IR Inten    --      8.5649                 3.9312                38.6753

                     19                     20                     21
                      A                      A                      A
 Frequencies --    948.2499               958.5933               971.5273
 Red. masses --      1.9459                 1.4073                 1.7633
 Frc consts  --      1.0309                 0.7619                 0.9806
 IR Inten    --     45.6322                 7.7285                25.7465

                     22                     23                     24
                      A                      A                      A
 Frequencies --   1016.4561              1031.9663              1037.9906
 Red. masses --      1.1587                 1.9861                 1.3491
 Frc consts  --      0.7053                 1.2462                 0.8564
 IR Inten    --     56.9006                 1.1435                28.7238

                     25                     26                     27
                      A                      A                      A
 Frequencies --   1094.1504              1124.8133              1131.9712
 Red. masses --      1.5201                 1.2783                 1.8873
 Frc consts  --      1.0722                 0.9529                 1.4248
 IR Inten    --      1.3543                 1.4090                27.9463

                     28                     29                     30
                      A                      A                      A
 Frequencies --   1178.5635              1204.2972              1241.1750
 Red. masses --      3.0175                 1.8913                 1.3244
 Frc consts  --      2.4695                 1.6161                 1.2021
 IR Inten    --    117.3172                 2.9752                18.3005

                     31                     32                     33
                      A                      A                      A
 Frequencies --   1339.7224              1346.9767              1394.3387
 Red. masses --      1.1485                 1.3262                 1.2546
 Frc consts  --      1.2145                 1.4176                 1.4372
 IR Inten    --      1.6744                 4.8904                15.0228

                     34                     35                     36
                      A                      A                      A
 Frequencies --   1412.9088              1428.6023              1438.9908
 Red. masses --      1.1859                 1.1756                 1.0929
 Frc consts  --      1.3949                 1.4136                 1.3334
 IR Inten    --      4.6732                 2.7292                19.5472

                     37                     38                     39
                      A                      A                      A
 Frequencies --   1455.0289              1458.9570              1475.0640
 Red. masses --      1.0494                 1.1449                 1.0423
 Frc consts  --      1.3089                 1.4358                 1.3362
 IR Inten    --     28.9051                 7.9752                 1.1364

                     40                     41                     42
                      A                      A                      A
 Frequencies --   1479.7940              1748.0442              1806.5683
 Red. masses --      1.0706                 4.8757                 7.7030
 Frc consts  --      1.3813                 8.7779                14.8123
 IR Inten    --     11.9627               100.5708                31.8611

                     43                     44                     45
                      A                      A                      A
 Frequencies --   2970.8293              3016.5105              3064.7204
 Red. masses --      1.0567                 1.0999                 1.0391
 Frc consts  --      5.4950                 5.8967                 5.7504
 IR Inten    --     72.0900               109.5700                 1.4869

                     46                     47                     48
                      A                      A                      A
 Frequencies --   3075.1918              3103.4551              3155.6998
 Red. masses --      1.0332                 1.0748                 1.1024
 Frc consts  --      5.7568                 6.0993                 6.4679
 IR Inten    --     20.4508               110.0227                 0.4120

                     49                     50                     51
                      A                      A                      A
 Frequencies --   3187.0746              3194.4900              3195.9454
 Red. masses --      1.1068                 1.1057                 1.1051
 Frc consts  --      6.6237                 6.6480                 6.6506
 IR Inten    --     13.6498                 7.1310                 4.4951

                     52                     53                     54
                      A                      A                      A
 Frequencies --   3222.8920              3223.3005              3267.6243
 Red. masses --      1.0922                 1.0980                 1.1124
 Frc consts  --      6.6842                 6.7215                 6.9983
 IR Inten    --      0.9705                21.6705                 9.5223

 - Thermochemistry -
 -------------------
 Temperature   298.150 Kelvin.  Pressure   1.00000 Atm.
 Atom     1 has atomic number  6 and mass  12.00000

 Molecular mass:   117.09538 amu.
 Principal axes and moments of inertia in atomic units:
                           1         2         3
     Eigenvalues --   782.104361390.559711575.85654
           X            0.99876   0.02159   0.04488
           Y           -0.01899   0.99816  -0.05756
           Z           -0.04604   0.05663   0.99733
 This molecule is an asymmetric top.
 Rotational symmetry number  1.
 Warning -- assumption of classical behavior for rotation
           may cause significant error
 Rotational temperatures (Kelvin)      0.11074     0.06229     0.05496
 Rotational constants (GHZ):           2.30755     1.29785     1.14524
    1 imaginary frequencies ignored.
 Zero-point vibrational energy     445149.4 (Joules/Mol)
                                  106.39326 (Kcal/Mol)
 Warning -- explicit consideration of  14 degrees of freedom as
           vibrations may cause significant error
 Vibrational temperatures:     68.31   106.14   116.50   168.91   184.87
          (Kelvin)            208.47   227.05   265.39   438.74   476.83
                              650.99   700.09   755.56   819.83  1081.40
                             1158.03  1235.33  1364.32  1379.20  1397.81
                             1462.45  1484.77  1493.44  1574.24  1618.36
                             1628.65  1695.69  1732.72  1785.77  1927.56
                             1938.00  2006.14  2032.86  2055.44  2070.39
                             2093.46  2099.11  2122.29  2129.09  2515.05
                             2599.25  4274.36  4340.09  4409.45  4424.52
                             4465.18  4540.35  4585.49  4596.16  4598.25
                             4637.02  4637.61  4701.38

 Zero-point correction=                           0.169548 (Hartree/Particle)
 Thermal correction to Energy=                    0.180359
 Thermal correction to Enthalpy=                  0.181303
 Thermal correction to Gibbs Free Energy=         0.132575
 Sum of electronic and zero-point Energies=           -389.729939
 Sum of electronic and thermal Energies=              -389.719129
 Sum of electronic and thermal Enthalpies=            -389.718185
 Sum of electronic and thermal Free Energies=         -389.766913

                     E (Thermal)             CV                S
                      KCal/Mol        Cal/Mol-Kelvin    Cal/Mol-Kelvin
 Total                  113.177             36.288            102.557
 Electronic               0.000              0.000              0.000
 Translational            0.889              2.981             40.188
 Rotational               0.889              2.981             28.929
 Vibrational            111.399             30.327             33.440
 Vibration     1          0.595              1.979              4.920
 Vibration     2          0.599              1.966              4.050
 Vibration     3          0.600              1.962              3.867
 Vibration     4          0.608              1.935              3.143
 Vibration     5          0.611              1.925              2.969
 Vibration     6          0.616              1.908              2.738
 Vibration     7          0.621              1.894              2.576
 Vibration     8          0.631              1.861              2.283
 Vibration     9          0.696              1.664              1.390
 Vibration    10          0.714              1.613              1.253
 Vibration    11          0.811              1.355              0.788
 Vibration    12          0.843              1.280              0.693
 Vibration    13          0.880              1.194              0.598
 Vibration    14          0.926              1.097              0.505

 Normal termination of Gaussian 16 at Sat Dec 30 20:49:48 2023.
