 Gaussian 16, Revision C.01,
 Gaussian 16:  ES64L-G16RevC.01  3-Jul-2019

 ----------------------------------------------------------------------
 # wb97xd chkbasis guess=read geom=allchk scrf=(iefpcm,solvent=toluene)
  opt=(readfc,ts,noeigen,maxcycles=50,maxstep=10)
 ----------------------------------------------------------------------

 Structure from the checkpoint file:  "allylic-1_1_opt_sqm.chk"
 ---------------------
 allyl_ts_46_reopt.out
 ---------------------
 Charge =  0 Multiplicity = 1

 SCF Done:  E(RwB97XD) =  -389.899261164     A.U. after    1 cycles
 SCF Done:  E(RwB97XD) =  -389.899371169     A.U. after   13 cycles
 SCF Done:  E(RwB97XD) =  -389.899420966     A.U. after   13 cycles
 SCF Done:  E(RwB97XD) =  -389.899474630     A.U. after   13 cycles
 SCF Done:  E(RwB97XD) =  -389.899454109     A.U. after   12 cycles
 SCF Done:  E(RwB97XD) =  -389.899328567     A.U. after   14 cycles
 SCF Done:  E(RwB97XD) =  -389.899485558     A.U. after   13 cycles
 SCF Done:  E(RwB97XD) =  -389.899485882     A.U. after   12 cycles
 SCF Done:  E(RwB97XD) =  -389.899487431     A.U. after   11 cycles
 SCF Done:  E(RwB97XD) =  -389.899415561     A.U. after   13 cycles
 SCF Done:  E(RwB97XD) =  -389.899486815     A.U. after   13 cycles
 SCF Done:  E(RwB97XD) =  -389.899487356     A.U. after   12 cycles
 SCF Done:  E(RwB97XD) =  -389.899459475     A.U. after   12 cycles
 SCF Done:  E(RwB97XD) =  -389.899486456     A.U. after   12 cycles
 SCF Done:  E(RwB97XD) =  -389.899486858     A.U. after   12 cycles
 SCF Done:  E(RwB97XD) =  -389.899487404     A.U. after   12 cycles
 SCF Done:  E(RwB97XD) =  -389.899487295     A.U. after   10 cycles
 Optimization completed.
    -- Stationary point found.

                         Standard orientation:
 ---------------------------------------------------------------------
 Center     Atomic      Atomic             Coordinates (Angstroms)
 Number     Number       Type             X           Y           Z
 ---------------------------------------------------------------------
      1          6           0       -0.923631   -0.458012   -0.940479
      2          6           0        2.395953   -0.199702    0.265030
      3          6           0       -0.975644    1.893982   -0.527400
      4          6           0        2.288111    0.684676   -0.714192
      5          7           0       -1.240206    0.486723   -0.134114
      6          1           0        3.150153    0.837052   -1.365621
      7          1           0       -0.312422    2.258282    0.287780
      8          1           0        3.278158   -0.804461    0.492105
      9          1           0       -1.938393    2.413325   -0.334478
     10          1           0       -0.534983   -0.090765   -1.895011
     11          1           0        1.371689    1.266868   -0.888438
     12          9           0        1.388358   -0.459700    1.118894
     13          6           0       -1.016861   -1.918388   -0.662232
     14          1           0       -2.052235   -2.224829   -0.446519
     15          1           0       -0.660836   -2.488351   -1.527848
     16          1           0       -0.396314   -2.177550    0.209213
     17          6           0       -1.771481    0.206867    1.198121
     18          1           0       -2.626730    0.872531    1.366978
     19          1           0       -2.082096   -0.837759    1.328200
     20          1           0       -0.988455    0.449364    1.929311
 ---------------------------------------------------------------------

 The electronic state is 1-A.
 Alpha  occ. eigenvalues --  -24.82783 -14.52797 -10.37907 -10.37702 -10.34000
 Alpha  occ. eigenvalues --  -10.32438 -10.29223 -10.23170  -1.31072  -1.08263
 Alpha  occ. eigenvalues --   -0.87366  -0.85642  -0.82209  -0.74816  -0.69451
 Alpha  occ. eigenvalues --   -0.65607  -0.61752  -0.58437  -0.57669  -0.56359
 Alpha  occ. eigenvalues --   -0.56198  -0.55561  -0.51702  -0.49766  -0.48712
 Alpha  occ. eigenvalues --   -0.48440  -0.46087  -0.45171  -0.44299  -0.37055
 Alpha  occ. eigenvalues --   -0.34607  -0.22341
 Alpha virt. eigenvalues --    0.02600   0.09011   0.13262   0.16439   0.16692
 Alpha virt. eigenvalues --    0.17042   0.19363   0.20792   0.21178   0.21585
 Alpha virt. eigenvalues --    0.22621   0.22914   0.24364   0.25106   0.27206

 Mulliken charges:
               1
     1  C    0.046785
     2  C    0.148807
     3  C   -0.301872
     4  C   -0.155871
     5  N   -0.189695
     6  H    0.070740
     7  H   -0.019072
     8  H    0.056128
     9  H   -0.031162
    10  H    0.082500
    11  H    0.074732
    12  F   -0.231009
    13  C   -0.066318
    14  H    0.094101
    15  H    0.076496
    16  H    0.089889
    17  C    0.052852
    18  H    0.071132
    19  H    0.049530
    20  H    0.081306
 Sum of Mulliken charges =  -0.00000

 Dipole moment (field-independent basis, Debye):
    X=             -0.2878    Y=             -5.8872    Z=              1.6035  Tot=              6.1084
 Quadrupole moment (field-independent basis, Debye-Ang):
   XX=            -41.7793   YY=            -56.7124   ZZ=            -50.8872
   XY=              3.7429   XZ=             -4.0239   YZ=              6.6437

 Normal termination of Gaussian 16 at Fri Dec 22 23:35:13 2023.
