 Gaussian 16, Revision C.01,
 Gaussian 16:  ES64L-G16RevC.01  3-Jul-2019

 ----------------------------------------------------------------------
 # wb97xd def2svp geom=allchk scrf=(iefpcm,solvent=toluene) opt=(calcfc
 ,ts,noeigen,maxcycles=50,maxstep=10)
 ----------------------------------------------------------------------

 Structure from the checkpoint file:  "allylic-1_1_opt_dft_re.chk"
 ---------------------
 allyl_ts_46_reopt.out
 ---------------------
 Charge =  0 Multiplicity = 1

 SCF Done:  E(RwB97XD) =  -389.899448602     A.U. after   16 cycles

  Exact polarizability:       0.000       0.000       0.000       0.000       0.000       0.000
 Approx polarizability:      71.338      -3.895      90.085      -6.173      -3.160      81.965

 SCF Done:  E(RwB97XD) =  -389.899487263     A.U. after   13 cycles
 SCF Done:  E(RwB97XD) =  -389.899487201     A.U. after   12 cycles
 SCF Done:  E(RwB97XD) =  -389.899366813     A.U. after   13 cycles
 SCF Done:  E(RwB97XD) =  -389.899482716     A.U. after   13 cycles
 SCF Done:  E(RwB97XD) =  -389.899486686     A.U. after   13 cycles
 SCF Done:  E(RwB97XD) =  -389.899487233     A.U. after    9 cycles
 SCF Done:  E(RwB97XD) =  -389.899487517     A.U. after   10 cycles
 SCF Done:  E(RwB97XD) =  -389.899442987     A.U. after   13 cycles
 SCF Done:  E(RwB97XD) =  -389.899487342     A.U. after   13 cycles
 SCF Done:  E(RwB97XD) =  -389.899487486     A.U. after   12 cycles
 SCF Done:  E(RwB97XD) =  -389.899487457     A.U. after    8 cycles
 SCF Done:  E(RwB97XD) =  -389.899487594     A.U. after   11 cycles
 SCF Done:  E(RwB97XD) =  -389.899487487     A.U. after   11 cycles
 Optimization completed.
    -- Stationary point found.

                         Standard orientation:
 ---------------------------------------------------------------------
 Center     Atomic      Atomic             Coordinates (Angstroms)
 Number     Number       Type             X           Y           Z
 ---------------------------------------------------------------------
      1          6           0       -0.923504   -0.458298   -0.940462
      2          6           0        2.395528   -0.199345    0.264834
      3          6           0       -0.976550    1.893723   -0.527823
      4          6           0        2.287373    0.684753   -0.714607
      5          7           0       -1.240143    0.486415   -0.134079
      6          1           0        3.149018    0.836340   -1.366728
      7          1           0       -0.312751    2.258601    0.286626
      8          1           0        3.277660   -0.804376    0.491420
      9          1           0       -1.939367    2.412646   -0.334138
     10          1           0       -0.535271   -0.090945   -1.895120
     11          1           0        1.371184    1.267346   -0.888730
     12          9           0        1.388451   -0.458742    1.119478
     13          6           0       -1.016096   -1.918689   -0.662136
     14          1           0       -0.661785   -2.488606   -1.528522
     15          1           0       -0.393695   -2.177761    0.207999
     16          1           0       -2.050949   -2.225306   -0.444265
     17          6           0       -1.770795    0.206598    1.198400
     18          1           0       -2.627054    0.871040    1.366962
     19          1           0       -2.079760   -0.838434    1.329236
     20          1           0       -0.988027    0.450779    1.929282
 ---------------------------------------------------------------------

 The electronic state is 1-A.
 Alpha  occ. eigenvalues --  -24.82785 -14.52797 -10.37909 -10.37702 -10.34000
 Alpha  occ. eigenvalues --  -10.32438 -10.29225 -10.23170  -1.31074  -1.08262
 Alpha  occ. eigenvalues --   -0.87366  -0.85644  -0.82209  -0.74816  -0.69453
 Alpha  occ. eigenvalues --   -0.65607  -0.61754  -0.58437  -0.57670  -0.56363
 Alpha  occ. eigenvalues --   -0.56199  -0.55562  -0.51703  -0.49765  -0.48712
 Alpha  occ. eigenvalues --   -0.48441  -0.46088  -0.45170  -0.44299  -0.37055
 Alpha  occ. eigenvalues --   -0.34609  -0.22340
 Alpha virt. eigenvalues --    0.02601   0.09009   0.13262   0.16438   0.16691
 Alpha virt. eigenvalues --    0.17040   0.19364   0.20794   0.21179   0.21585
 Alpha virt. eigenvalues --    0.22621   0.22912   0.24365   0.25106   0.27207

 Mulliken charges:
               1
     1  C    0.046771
     2  C    0.148828
     3  C   -0.301926
     4  C   -0.155864
     5  N   -0.189680
     6  H    0.070741
     7  H   -0.019046
     8  H    0.056140
     9  H   -0.031198
    10  H    0.082479
    11  H    0.074750
    12  F   -0.230993
    13  C   -0.066282
    14  H    0.076497
    15  H    0.089899
    16  H    0.094073
    17  C    0.052868
    18  H    0.071148
    19  H    0.049509
    20  H    0.081286
 Sum of Mulliken charges =  -0.00000

 Dipole moment (field-independent basis, Debye):
    X=             -0.2827    Y=             -5.8881    Z=              1.6044  Tot=              6.1093
 Quadrupole moment (field-independent basis, Debye-Ang):
   XX=            -41.7906   YY=            -56.7087   ZZ=            -50.8910
   XY=              3.7474   XZ=             -4.0328   YZ=              6.6459

 1\1\GINC-NODE-006\FTS\RwB97XD\def2SVP\C6H12F1N1\JP2658\22-Dec-2023\0\\
 # wb97xd def2svp geom=allchk scrf=(iefpcm,solvent=toluene) opt=(calcfc
 ,ts,noeigen,maxcycles=50,maxstep=10)\\allyl_ts_46_reopt.out\\0,1\C,1.4
 196081332,0.0303288239,0.6309853663\C,-2.0481841471,-0.562466533,1.029
 4583866\C,0.6942661874,2.1536339077,-0.1878806133\C,-1.7892365881,0.56
 55622773,1.6722083656\N,1.1316014639,0.7490995929,-0.3904924685\H,-2.3
 250861172,0.7609269114,2.6024614072\H,-0.3095253396,2.1719902386,-0.66
 65846237\H,-2.758467602,-1.3328746558,1.3417528877\H,1.3295358198,2.73

 Normal termination of Gaussian 16 at Fri Dec 22 23:10:22 2023.
