 Gaussian 16, Revision C.01,
 Gaussian 16:  ES64L-G16RevC.01  3-Jul-2019

 -----------------------------------------------------------
 # wb97xd def2svp scrf=(iefpcm,solvent=toluene) freq=noraman
 -----------------------------------------------------------

 -------------------------
 allylic-1_1_opt_hf_re.out
 -------------------------
 Symbolic Z-matrix:
 Charge =  0 Multiplicity = 1

                         Standard orientation:
 ---------------------------------------------------------------------
 Center     Atomic      Atomic             Coordinates (Angstroms)
 Number     Number       Type             X           Y           Z
 ---------------------------------------------------------------------
      1          6           0        0.923430    0.458251   -0.940482
      2          6           0       -2.395530    0.199289    0.264788
      3          6           0        0.976632   -1.893749   -0.527702
      4          6           0       -2.287289   -0.685001   -0.714462
      5          7           0        1.240191   -0.486399   -0.134062
      6          1           0       -3.148889   -0.836782   -1.366602
      7          1           0        0.312882   -2.258569    0.286808
      8          1           0       -3.277700    0.804328    0.491208
      9          1           0        1.939472   -2.412618   -0.333962
     10          1           0        0.535130    0.090811   -1.895072
     11          1           0       -1.371059   -1.267580   -0.888422
     12          9           0       -1.388500    0.458930    1.119418
     13          6           0        1.015939    1.918661   -0.662262
     14          1           0        0.661899    2.488501   -1.528802
     15          1           0        0.393239    2.177791    0.207648
     16          1           0        2.050709    2.225332   -0.444062
     17          6           0        1.770881   -0.206448    1.198378
     18          1           0        2.626971   -0.871068    1.367098
     19          1           0        2.080100    0.838532    1.328998
     20          1           0        0.988031   -0.450269    1.929288
 ---------------------------------------------------------------------

 SCF Done:  E(RwB97XD) =  -389.899487447     A.U. after   16 cycles

 The electronic state is 1-A.
 Alpha  occ. eigenvalues --  -24.82785 -14.52797 -10.37909 -10.37702 -10.34000
 Alpha  occ. eigenvalues --  -10.32438 -10.29225 -10.23170  -1.31074  -1.08262
 Alpha  occ. eigenvalues --   -0.87366  -0.85644  -0.82209  -0.74816  -0.69453
 Alpha  occ. eigenvalues --   -0.65607  -0.61754  -0.58437  -0.57670  -0.56363
 Alpha  occ. eigenvalues --   -0.56199  -0.55562  -0.51703  -0.49765  -0.48712
 Alpha  occ. eigenvalues --   -0.48441  -0.46088  -0.45170  -0.44299  -0.37055
 Alpha  occ. eigenvalues --   -0.34609  -0.22341
 Alpha virt. eigenvalues --    0.02601   0.09009   0.13262   0.16437   0.16691
 Alpha virt. eigenvalues --    0.17040   0.19362   0.20794   0.21179   0.21586
 Alpha virt. eigenvalues --    0.22624   0.22912   0.24365   0.25106   0.27206

 Mulliken charges:
               1
     1  C    0.046771
     2  C    0.148827
     3  C   -0.301907
     4  C   -0.155862
     5  N   -0.189698
     6  H    0.070743
     7  H   -0.019046
     8  H    0.056140
     9  H   -0.031201
    10  H    0.082477
    11  H    0.074746
    12  F   -0.230994
    13  C   -0.066274
    14  H    0.076495
    15  H    0.089901
    16  H    0.094067
    17  C    0.052878
    18  H    0.071144
    19  H    0.049504
    20  H    0.081287
 Sum of Mulliken charges =  -0.00000

 Dipole moment (field-independent basis, Debye):
    X=              0.2823    Y=              5.8881    Z=              1.6040  Tot=              6.1092
 Quadrupole moment (field-independent basis, Debye-Ang):
   XX=            -41.7913   YY=            -56.7094   ZZ=            -50.8905
   XY=              3.7483   XZ=              4.0336   YZ=             -6.6454

  Exact polarizability:      78.832      -4.318      97.537       7.479       1.733      80.665
 Approx polarizability:      71.410      -3.663      90.287       5.968       3.196      81.748

 ******    1 imaginary frequencies (negative Signs) ******

                      1                      2                      3
                      A                      A                      A
 Frequencies --   -359.8281                47.4591                73.7273
 Red. masses --      1.0889                 3.8005                 3.4113
 Frc consts  --      0.0831                 0.0050                 0.0109
 IR Inten    --     61.4446                 5.8152                21.4040

                      4                      5                      6
                      A                      A                      A
 Frequencies --     80.9521               117.4120               128.4180
 Red. masses --      2.4477                 4.9854                 1.2150
 Frc consts  --      0.0095                 0.0405                 0.0118
 IR Inten    --      1.2713                 0.3512                 0.2814

                      7                      8                      9
                      A                      A                      A
 Frequencies --    144.8487               157.7837               184.4215
 Red. masses --      1.5054                 2.0213                 2.1420
 Frc consts  --      0.0186                 0.0296                 0.0429
 IR Inten    --      2.0342                12.3703                 3.4813

                     10                     11                     12
                      A                      A                      A
 Frequencies --    304.9362               331.4140               452.4468
 Red. masses --      2.5392                 2.6721                 2.6348
 Frc consts  --      0.1391                 0.1729                 0.3178
 IR Inten    --     23.6620                 4.9910                11.4373

                     13                     14                     15
                      A                      A                      A
 Frequencies --    486.6001               525.1210               569.7873
 Red. masses --      2.4200                 2.5067                 3.2129
 Frc consts  --      0.3376                 0.4073                 0.6146
 IR Inten    --      1.7696                 3.1432                13.0803

                     16                     17                     18
                      A                      A                      A
 Frequencies --    751.6015               804.8492               858.5816
 Red. masses --      1.4199                 3.2222                 1.1230
 Frc consts  --      0.4726                 1.2298                 0.4878
 IR Inten    --      8.5639                 3.9304                38.6811

                     19                     20                     21
                      A                      A                      A
 Frequencies --    948.2415               958.5876               971.5352
 Red. masses --      1.9459                 1.4072                 1.7636
 Frc consts  --      1.0309                 0.7619                 0.9808
 IR Inten    --     45.6334                 7.7191                25.7355

                     22                     23                     24
                      A                      A                      A
 Frequencies --   1016.4502              1031.9561              1037.9973
 Red. masses --      1.1586                 1.9874                 1.3484
 Frc consts  --      0.7053                 1.2470                 0.8560
 IR Inten    --     56.9162                 1.1322                28.7409

                     25                     26                     27
                      A                      A                      A
 Frequencies --   1094.1382              1124.8097              1131.9704
 Red. masses --      1.5201                 1.2783                 1.8873
 Frc consts  --      1.0722                 0.9529                 1.4248
 IR Inten    --      1.3577                 1.3961                27.9524

                     28                     29                     30
                      A                      A                      A
 Frequencies --   1178.5648              1204.2935              1241.1777
 Red. masses --      3.0178                 1.8913                 1.3244
 Frc consts  --      2.4697                 1.6161                 1.2021
 IR Inten    --    117.3161                 2.9758                18.3066

                     31                     32                     33
                      A                      A                      A
 Frequencies --   1339.7179              1346.9560              1394.3138
 Red. masses --      1.1485                 1.3261                 1.2548
 Frc consts  --      1.2145                 1.4175                 1.4373
 IR Inten    --      1.6758                 4.8924                15.0340

                     34                     35                     36
                      A                      A                      A
 Frequencies --   1412.8996              1428.5942              1438.9842
 Red. masses --      1.1859                 1.1756                 1.0929
 Frc consts  --      1.3948                 1.4136                 1.3333
 IR Inten    --      4.6672                 2.7321                19.5365

                     37                     38                     39
                      A                      A                      A
 Frequencies --   1455.0242              1458.9566              1475.0448
 Red. masses --      1.0492                 1.1451                 1.0422
 Frc consts  --      1.3087                 1.4361                 1.3360
 IR Inten    --     28.9458                 7.9215                 1.0987

                     40                     41                     42
                      A                      A                      A
 Frequencies --   1479.7875              1748.0439              1806.5196
 Red. masses --      1.0706                 4.8757                 7.7026
 Frc consts  --      1.3813                 8.7780                14.8105
 IR Inten    --     12.0140               100.5665                31.8578

                     43                     44                     45
                      A                      A                      A
 Frequencies --   2970.8605              3016.5253              3064.7179
 Red. masses --      1.0567                 1.0999                 1.0391
 Frc consts  --      5.4951                 5.8968                 5.7505
 IR Inten    --     72.1129               109.5661                 1.4873

                     46                     47                     48
                      A                      A                      A
 Frequencies --   3075.1895              3103.4658              3155.6826
 Red. masses --      1.0332                 1.0748                 1.1024
 Frc consts  --      5.7568                 6.0993                 6.4678
 IR Inten    --     20.4423               110.0497                 0.4126

                     49                     50                     51
                      A                      A                      A
 Frequencies --   3187.0673              3194.5133              3195.9681
 Red. masses --      1.1068                 1.1058                 1.1051
 Frc consts  --      6.6236                 6.6484                 6.6504
 IR Inten    --     13.6162                 7.2226                 4.4371

                     52                     53                     54
                      A                      A                      A
 Frequencies --   3222.9718              3223.3263              3267.6291
 Red. masses --      1.0923                 1.0979                 1.1124
 Frc consts  --      6.6850                 6.7211                 6.9984
 IR Inten    --      1.1869                21.4600                 9.5247

 - Thermochemistry -
 -------------------
 Temperature   298.150 Kelvin.  Pressure   1.00000 Atm.
 Atom     1 has atomic number  6 and mass  12.00000

 Molecular mass:   117.09538 amu.
 Principal axes and moments of inertia in atomic units:
                           1         2         3
     Eigenvalues --   782.103711390.535541575.87674
           X            0.99876   0.02160   0.04488
           Y           -0.01900   0.99816  -0.05756
           Z           -0.04604   0.05664   0.99733
 This molecule is an asymmetric top.
 Rotational symmetry number  1.
 Warning -- assumption of classical behavior for rotation
           may cause significant error
 Rotational temperatures (Kelvin)      0.11074     0.06229     0.05496
 Rotational constants (GHZ):           2.30755     1.29787     1.14523
    1 imaginary frequencies ignored.
 Zero-point vibrational energy     445147.5 (Joules/Mol)
                                  106.39279 (Kcal/Mol)
 Warning -- explicit consideration of  14 degrees of freedom as
           vibrations may cause significant error
 Vibrational temperatures:     68.28   106.08   116.47   168.93   184.76
          (Kelvin)            208.40   227.02   265.34   438.74   476.83
                              650.97   700.11   755.53   819.80  1081.39
                             1158.00  1235.31  1364.31  1379.19  1397.82
                             1462.45  1484.75  1493.45  1574.22  1618.35
                             1628.65  1695.69  1732.71  1785.78  1927.56
                             1937.97  2006.11  2032.85  2055.43  2070.38
                             2093.46  2099.11  2122.26  2129.08  2515.05
                             2599.18  4274.41  4340.11  4409.45  4424.51
                             4465.20  4540.32  4585.48  4596.19  4598.29
                             4637.14  4637.65  4701.39

 Zero-point correction=                           0.169548 (Hartree/Particle)
 Thermal correction to Energy=                    0.180358
 Thermal correction to Enthalpy=                  0.181303
 Thermal correction to Gibbs Free Energy=         0.132572
 Sum of electronic and zero-point Energies=           -389.729940
 Sum of electronic and thermal Energies=              -389.719129
 Sum of electronic and thermal Enthalpies=            -389.718185
 Sum of electronic and thermal Free Energies=         -389.766915

                     E (Thermal)             CV                S
                      KCal/Mol        Cal/Mol-Kelvin    Cal/Mol-Kelvin
 Total                  113.177             36.289            102.562
 Electronic               0.000              0.000              0.000
 Translational            0.889              2.981             40.188
 Rotational               0.889              2.981             28.929
 Vibrational            111.399             30.327             33.445
 Vibration     1          0.595              1.979              4.921
 Vibration     2          0.599              1.966              4.051
 Vibration     3          0.600              1.962              3.868
 Vibration     4          0.608              1.935              3.143
 Vibration     5          0.611              1.925              2.970
 Vibration     6          0.616              1.908              2.739
 Vibration     7          0.621              1.894              2.576
 Vibration     8          0.631              1.861              2.283
 Vibration     9          0.696              1.664              1.390
 Vibration    10          0.714              1.613              1.253
 Vibration    11          0.811              1.355              0.788
 Vibration    12          0.843              1.280              0.692
 Vibration    13          0.880              1.194              0.598
 Vibration    14          0.926              1.097              0.505

 Normal termination of Gaussian 16 at Sat Dec 30 20:49:48 2023.
