 Gaussian 16, Revision C.01,
 Gaussian 16:  ES64L-G16RevC.01  3-Jul-2019

 ----------------------------------------------------------------------
 # m062x 6-31g(d) scrf=(iefpcm,solvent=benzene) opt=(maxcycles=50,maxst
 ep=10) freq=noraman
 ----------------------------------------------------------------------

 -------------
 Molecule Name
 -------------
 Symbolic Z-matrix:
 Charge =  1 Multiplicity = 1

 SCF Done:  E(RM062X) =  -883.922759870     A.U. after   13 cycles
 SCF Done:  E(RM062X) =  -883.931856574     A.U. after   11 cycles
 SCF Done:  E(RM062X) =  -883.939996116     A.U. after   12 cycles
 SCF Done:  E(RM062X) =  -883.940635111     A.U. after   12 cycles
 SCF Done:  E(RM062X) =  -883.940781603     A.U. after   12 cycles
 SCF Done:  E(RM062X) =  -883.941799983     A.U. after   12 cycles
 SCF Done:  E(RM062X) =  -883.941786041     A.U. after   11 cycles
 SCF Done:  E(RM062X) =  -883.941902410     A.U. after   10 cycles
 SCF Done:  E(RM062X) =  -883.941941920     A.U. after   10 cycles
 SCF Done:  E(RM062X) =  -883.941989564     A.U. after   11 cycles
 SCF Done:  E(RM062X) =  -883.942235775     A.U. after    8 cycles
 SCF Done:  E(RM062X) =  -883.942236312     A.U. after    8 cycles
 SCF Done:  E(RM062X) =  -883.942236315     A.U. after    8 cycles
 SCF Done:  E(RM062X) =  -883.942236369     A.U. after    8 cycles
 SCF Done:  E(RM062X) =  -883.942235712     A.U. after    9 cycles
 SCF Done:  E(RM062X) =  -883.942236176     A.U. after    8 cycles
 SCF Done:  E(RM062X) =  -883.942237607     A.U. after    7 cycles
 SCF Done:  E(RM062X) =  -883.942236973     A.U. after    9 cycles
 SCF Done:  E(RM062X) =  -883.942237758     A.U. after    8 cycles
 Optimization completed.
    -- Stationary point found.
 Normal termination of Gaussian 16 at Mon Dec 11 13:28:03 2023.

 --------------------------------------------------------------------
 #N Geom=AllCheck Guess=TCheck SCRF=Check GenChk RM062X/6-31G(d) Freq
 --------------------------------------------------------------------

 Structure from the checkpoint file:  "cinchonidine_OPLS3e_1000_1_opt_freq.chk"
 -------------
 Molecule Name
 -------------
 Charge =  1 Multiplicity = 1

                         Standard orientation:
 ---------------------------------------------------------------------
 Center     Atomic      Atomic             Coordinates (Angstroms)
 Number     Number       Type             X           Y           Z
 ---------------------------------------------------------------------
      1          8           0       -0.726853   -2.181085   -1.283433
      2          6           0       -0.093712   -0.934405   -1.113246
      3          6           0       -1.048365   -0.019453   -0.335885
      4          1           0        0.109652   -0.479001   -2.095105
      5          6           0        1.205528   -1.033345   -0.331995
      6          1           0       -0.525334    0.928816   -0.180185
      7          6           0       -1.547323   -0.584960    1.002698
      8          7           0       -2.275459    0.364839   -1.148073
      9          6           0        2.170130    0.020090   -0.364177
     10          6           0        1.452476   -2.129359    0.452587
     11          6           0       -2.995656   -0.121625    1.228701
     12          1           0       -0.882220   -0.247734    1.800424
     13          1           0       -1.509584   -1.678550    0.980576
     14          6           0       -3.327818   -0.725171   -1.174840
     15          6           0       -2.868249    1.622252   -0.555316
     16          6           0        2.046548    1.199656   -1.147778
     17          6           0        3.332079   -0.139084    0.444133
     18          6           0        2.649923   -2.184439    1.211315
     19          1           0        0.744024   -2.949142    0.503166
     20          6           0       -3.901118   -0.877474    0.246042
     21          1           0       -3.299050   -0.333948    2.256833
     22          6           0       -3.134811    1.388506    0.953513
     23          1           0       -2.829193   -1.624663   -1.528484
     24          1           0       -4.074977   -0.408585   -1.904120
     25          1           0       -2.150252    2.427478   -0.730872
     26          1           0       -3.777690    1.832011   -1.122085
     27          6           0        3.019023    2.168125   -1.115266
     28          1           0        1.186319    1.342610   -1.795502
     29          6           0        4.319522    0.879371    0.456981
     30          7           0        3.553778   -1.238676    1.221650
     31          1           0        2.845445   -3.054443    1.834546
     32          1           0       -3.944055   -1.938547    0.502401
     33          1           0       -4.920247   -0.482874    0.292917
     34          1           0       -4.176849    1.662755    1.148385
     35          6           0       -2.242320    2.255939    1.840433
     36          6           0        4.165882    2.010131   -0.302355
     37          1           0        5.189581    0.721576    1.085324
     38          1           0       -2.431010    3.316752    1.654245
     39          1           0       -2.447090    2.057451    2.896040
     40          1           0       -1.176856    2.073236    1.665775
     41          1           0        4.924799    2.785206   -0.289528
     42          1           0       -0.124583   -2.774018   -1.760294
     43          1           0       -1.987085    0.560120   -2.112019
     44          1           0        2.912419    3.060502   -1.723299
 ---------------------------------------------------------------------

 SCF Done:  E(RM062X) =  -883.942237758     A.U. after    1 cycles

 The electronic state is 1-A.
 Alpha  occ. eigenvalues --  -19.72222 -14.95528 -14.80301 -10.69115 -10.68673
 Alpha  occ. eigenvalues --  -10.67641 -10.66843 -10.63222 -10.63175 -10.63072
 Alpha  occ. eigenvalues --  -10.62779 -10.62355 -10.61857 -10.61832 -10.61758
 Alpha  occ. eigenvalues --  -10.60881 -10.60813 -10.60286 -10.59789 -10.59462
 Alpha  occ. eigenvalues --  -10.59385  -1.23402  -1.19933  -1.10111  -1.00570
 Alpha  occ. eigenvalues --   -1.00270  -0.98643  -0.95584  -0.95014  -0.89442
 Alpha  occ. eigenvalues --   -0.88435  -0.87000  -0.85428  -0.81649  -0.79526
 Alpha  occ. eigenvalues --   -0.77073  -0.76429  -0.76097  -0.73050  -0.71500
 Alpha  occ. eigenvalues --   -0.68595  -0.67394  -0.65703  -0.64955  -0.64190
 Alpha  occ. eigenvalues --   -0.63778  -0.61813  -0.58893  -0.58052  -0.57411
 Alpha  occ. eigenvalues --   -0.56813  -0.56562  -0.55900  -0.55091  -0.54920
 Alpha  occ. eigenvalues --   -0.53824  -0.53448  -0.53228  -0.52809  -0.52512
 Alpha  occ. eigenvalues --   -0.51970  -0.50602  -0.49155  -0.48387  -0.46766
 Alpha  occ. eigenvalues --   -0.46554  -0.45357  -0.45097  -0.44441  -0.43994
 Alpha  occ. eigenvalues --   -0.43847  -0.42597  -0.40451  -0.36497  -0.34628
 Alpha  occ. eigenvalues --   -0.32836
 Alpha virt. eigenvalues --   -0.07067  -0.03063   0.00379   0.00923   0.05196
 Alpha virt. eigenvalues --    0.05836   0.06601   0.07318   0.08010   0.09442
 Alpha virt. eigenvalues --    0.09518   0.09891   0.10804   0.11020   0.11630

 Mulliken charges:
               1
     1  O   -0.660582
     2  C    0.058675
     3  C   -0.019837
     4  H    0.181638
     5  C    0.047491
     6  H    0.215645
     7  C   -0.330088
     8  N   -0.581124
     9  C    0.089143
    10  C   -0.241734
    11  C   -0.164214
    12  H    0.214571
    13  H    0.210169
    14  C   -0.209992
    15  C   -0.200223
    16  C   -0.209504
    17  C    0.203462
    18  C    0.033460
    19  H    0.195899
    20  C   -0.330857
    21  H    0.205693
    22  C   -0.149339
    23  H    0.265024
    24  H    0.227936
    25  H    0.229152
    26  H    0.232290
    27  C   -0.171377
    28  H    0.151794
    29  C   -0.156843
    30  N   -0.495543
    31  H    0.196851
    32  H    0.212729
    33  H    0.198903
    34  H    0.201487
    35  C   -0.502548
    36  C   -0.172850
    37  H    0.201297
    38  H    0.190617
    39  H    0.195595
    40  H    0.170698
    41  H    0.196702
    42  H    0.451992
    43  H    0.427906
    44  H    0.189838
 Sum of Mulliken charges =   1.00000

 Dipole moment (field-independent basis, Debye):
    X=             -9.7888    Y=              1.6777    Z=             -4.5612  Tot=             10.9288
 Quadrupole moment (field-independent basis, Debye-Ang):
   XX=            -88.5998   YY=           -102.0134   ZZ=           -109.1183
   XY=              0.4715   XZ=              2.3403   YZ=             -1.4035

  Exact polarizability:     239.528      28.472     234.430      23.933     -32.621     168.934
 Approx polarizability:     246.864      32.192     273.911      31.973     -45.498     201.964

                      1                      2                      3
                      A                      A                      A
 Frequencies --     28.6508                46.3434                51.8651
 Red. masses --      3.7473                 4.3499                 4.0353
 Frc consts  --      0.0018                 0.0055                 0.0064
 IR Inten    --      0.1052                 0.3358                 0.0514

                      4                      5                      6
                      A                      A                      A
 Frequencies --     66.9489               131.2378               164.4821
 Red. masses --      3.6678                 3.6901                 3.0898
 Frc consts  --      0.0097                 0.0374                 0.0493
 IR Inten    --      1.3572                 0.8054                 0.8316

                      7                      8                      9
                      A                      A                      A
 Frequencies --    184.2677               195.7820               232.1890
 Red. masses --      4.2018                 4.3440                 2.8349
 Frc consts  --      0.0841                 0.0981                 0.0900
 IR Inten    --      5.5632                 2.3176                 4.3545

                     10                     11                     12
                      A                      A                      A
 Frequencies --    238.7143               250.9604               264.9471
 Red. masses --      1.1722                 3.1286                 3.9908
 Frc consts  --      0.0394                 0.1161                 0.1651
 IR Inten    --      0.3172                 0.5408                 6.1414

                     13                     14                     15
                      A                      A                      A
 Frequencies --    287.8961               306.3753               345.8861
 Red. masses --      2.5763                 2.9818                 3.5743
 Frc consts  --      0.1258                 0.1649                 0.2519
 IR Inten    --      3.7828                12.1020                 1.6872

                     16                     17                     18
                      A                      A                      A
 Frequencies --    386.3462               404.5821               416.9244
 Red. masses --      2.0641                 1.3047                 2.3005
 Frc consts  --      0.1815                 0.1258                 0.2356
 IR Inten    --      6.0213               171.7031                 1.3781

                     19                     20                     21
                      A                      A                      A
 Frequencies --    421.4963               432.1708               462.4196
 Red. masses --      3.0833                 3.5807                 4.0468
 Frc consts  --      0.3227                 0.3940                 0.5098
 IR Inten    --      1.2234                 6.7470                 0.6031

                     22                     23                     24
                      A                      A                      A
 Frequencies --    480.8975               511.5880               527.1608
 Red. masses --      3.2110                 4.3013                 5.6086
 Frc consts  --      0.4375                 0.6633                 0.9183
 IR Inten    --      2.0929                 3.9435                 2.7358

                     25                     26                     27
                      A                      A                      A
 Frequencies --    544.9330               580.5808               599.0812
 Red. masses --      7.2407                 3.5970                 3.5774
 Frc consts  --      1.2668                 0.7144                 0.7565
 IR Inten    --      0.2401                 0.0844                 0.4179

                     28                     29                     30
                      A                      A                      A
 Frequencies --    626.7706               642.3125               658.1834
 Red. masses --      5.0019                 4.9373                 4.0195
 Frc consts  --      1.1577                 1.2001                 1.0259
 IR Inten    --      7.2226                 9.0763                 2.0898

                     31                     32                     33
                      A                      A                      A
 Frequencies --    702.5691               775.0353               779.9149
 Red. masses --      3.1602                 3.4255                 1.7425
 Frc consts  --      0.9191                 1.2123                 0.6245
 IR Inten    --      8.8317                 0.8129                32.4058

                     34                     35                     36
                      A                      A                      A
 Frequencies --    785.2302               801.5617               821.8859
 Red. masses --      2.7690                 3.1250                 2.5755
 Frc consts  --      1.0059                 1.1830                 1.0250
 IR Inten    --     12.5138                12.3150                27.1257

                     37                     38                     39
                      A                      A                      A
 Frequencies --    825.8109               843.0549               851.9004
 Red. masses --      5.4511                 2.3240                 1.7513
 Frc consts  --      2.1903                 0.9732                 0.7488
 IR Inten    --      2.6249                 0.5213                14.5430

                     40                     41                     42
                      A                      A                      A
 Frequencies --    876.7702               887.7113               894.4309
 Red. masses --      2.5301                 3.3289                 1.5639
 Frc consts  --      1.1459                 1.5456                 0.7371
 IR Inten    --      5.4469                 2.0942                 0.0979

                     43                     44                     45
                      A                      A                      A
 Frequencies --    916.2860               948.6883               950.7876
 Red. masses --      1.4512                 1.7980                 1.8709
 Frc consts  --      0.7179                 0.9534                 0.9965
 IR Inten    --     22.5160                 6.7936                 0.6882

                     46                     47                     48
                      A                      A                      A
 Frequencies --    971.8401               979.9481               990.9015
 Red. masses --      2.2126                 2.6382                 1.3409
 Frc consts  --      1.2312                 1.4927                 0.7758
 IR Inten    --     21.5579                 4.6592                 2.0610

                     49                     50                     51
                      A                      A                      A
 Frequencies --   1001.8761              1016.9099              1029.2226
 Red. masses --      2.0447                 1.4243                 2.4719
 Frc consts  --      1.2092                 0.8678                 1.5427
 IR Inten    --      8.6368                 0.9766                11.9958

                     52                     53                     54
                      A                      A                      A
 Frequencies --   1030.8071              1033.0113              1042.6535
 Red. masses --      1.3627                 1.9664                 2.7315
 Frc consts  --      0.8531                 1.2363                 1.7495
 IR Inten    --      0.5885                 2.3805                17.6630

                     55                     56                     57
                      A                      A                      A
 Frequencies --   1063.0511              1069.8083              1085.4334
 Red. masses --      2.1504                 1.9281                 2.1178
 Frc consts  --      1.4318                 1.3002                 1.4701
 IR Inten    --      3.7758                12.8870                 4.0027

                     58                     59                     60
                      A                      A                      A
 Frequencies --   1105.2692              1106.9252              1121.4076
 Red. masses --      2.0940                 2.0450                 2.1002
 Frc consts  --      1.5072                 1.4763                 1.5561
 IR Inten    --      0.4341                17.0284                11.1972

                     61                     62                     63
                      A                      A                      A
 Frequencies --   1167.6188              1171.6578              1173.1460
 Red. masses --      1.5260                 2.0739                 1.2528
 Frc consts  --      1.2257                 1.6774                 1.0159
 IR Inten    --      6.2365                25.7709                 4.4687

                     64                     65                     66
                      A                      A                      A
 Frequencies --   1184.4825              1195.2635              1220.0578
 Red. masses --      1.6658                 1.2232                 1.7794
 Frc consts  --      1.3770                 1.0296                 1.5606
 IR Inten    --     22.5075                 7.5404                33.5760

                     67                     68                     69
                      A                      A                      A
 Frequencies --   1230.2713              1250.3480              1250.7039
 Red. masses --      1.1818                 1.5763                 1.4410
 Frc consts  --      1.0539                 1.4519                 1.3280
 IR Inten    --      1.4622                33.6077                21.4121

                     70                     71                     72
                      A                      A                      A
 Frequencies --   1274.9112              1286.7364              1289.2791
 Red. masses --      1.7210                 1.7782                 1.1492
 Frc consts  --      1.6481                 1.7347                 1.1255
 IR Inten    --      2.1077                 8.4434                 1.8597

                     73                     74                     75
                      A                      A                      A
 Frequencies --   1302.2992              1305.1052              1326.9714
 Red. masses --      1.4198                 1.4685                 1.1363
 Frc consts  --      1.4187                 1.4737                 1.1789
 IR Inten    --      3.8809                26.7787                15.6720

                     76                     77                     78
                      A                      A                      A
 Frequencies --   1342.7630              1353.4358              1355.4796
 Red. masses --      1.3831                 1.4187                 1.8035
 Frc consts  --      1.4693                 1.5311                 1.9524
 IR Inten    --      4.8523                22.2224                29.3004

                     79                     80                     81
                      A                      A                      A
 Frequencies --   1365.3029              1377.2171              1383.3861
 Red. masses --      1.5143                 2.0396                 1.3329
 Frc consts  --      1.6632                 2.2793                 1.5029
 IR Inten    --      4.2399                27.3629                 4.3002

                     82                     83                     84
                      A                      A                      A
 Frequencies --   1388.6240              1401.2573              1418.8804
 Red. masses --      1.4830                 1.5111                 2.3179
 Frc consts  --      1.6848                 1.7481                 2.7494
 IR Inten    --      9.5855                10.1088                 7.2388

                     85                     86                     87
                      A                      A                      A
 Frequencies --   1425.0674              1435.2108              1442.5511
 Red. masses --      1.5980                 1.8158                 1.6039
 Frc consts  --      1.9121                 2.2037                 1.9665
 IR Inten    --      2.7685                 3.7993                 4.0120

                     88                     89                     90
                      A                      A                      A
 Frequencies --   1447.9789              1455.1986              1464.3436
 Red. masses --      1.8057                 1.2927                 1.3770
 Frc consts  --      2.2306                 1.6128                 1.7397
 IR Inten    --      0.5663                17.2082                16.0281

                     91                     92                     93
                      A                      A                      A
 Frequencies --   1480.0592              1498.6932              1516.3645
 Red. masses --      2.4839                 1.2600                 1.1365
 Frc consts  --      3.2058                 1.6674                 1.5397
 IR Inten    --      8.3605                72.9026                 2.3722

                     94                     95                     96
                      A                      A                      A
 Frequencies --   1521.0528              1525.3203              1526.1665
 Red. masses --      1.0666                 1.8535                 1.3452
 Frc consts  --      1.4540                 2.5408                 1.8461
 IR Inten    --     12.1833                 3.5397                 5.3956

                     97                     98                     99
                      A                      A                      A
 Frequencies --   1529.0988              1533.9126              1547.6696
 Red. masses --      1.0767                 1.0752                 1.0928
 Frc consts  --      1.4833                 1.4905                 1.5422
 IR Inten    --     16.5713                 5.2698                10.7527

                    100                    101                    102
                      A                      A                      A
 Frequencies --   1581.9276              1664.9322              1693.6488
 Red. masses --      3.9630                 7.6149                 6.7133
 Frc consts  --      5.8432                12.4368                11.3457
 IR Inten    --     41.7724                16.2398                23.6779

                    103                    104                    105
                      A                      A                      A
 Frequencies --   1711.9059              3045.9232              3089.1113
 Red. masses --      6.4598                 1.0830                 1.0404
 Frc consts  --     11.1540                 5.9198                 5.8496
 IR Inten    --      6.9119                26.3828                 9.1898

                    106                    107                    108
                      A                      A                      A
 Frequencies --   3103.7110              3115.1796              3115.6965
 Red. masses --      1.0838                 1.0622                 1.0630
 Frc consts  --      6.1513                 6.0732                 6.0797
 IR Inten    --     10.6028                13.4052                 3.2245

                    109                    110                    111
                      A                      A                      A
 Frequencies --   3124.5635              3133.9768              3142.9478
 Red. masses --      1.0646                 1.0829                 1.0875
 Frc consts  --      6.1235                 6.2668                 6.3292
 IR Inten    --      5.6938                 5.3047                13.0385

                    112                    113                    114
                      A                      A                      A
 Frequencies --   3153.3637              3161.3881              3165.1996
 Red. masses --      1.0668                 1.1022                 1.1050
 Frc consts  --      6.2502                 6.4905                 6.5225
 IR Inten    --     12.2278                24.1488                14.0809

                    115                    116                    117
                      A                      A                      A
 Frequencies --   3169.0876              3178.2028              3184.2705
 Red. masses --      1.1049                 1.1036                 1.1099
 Frc consts  --      6.5381                 6.5682                 6.6304
 IR Inten    --      6.6386                10.4554                 5.4476

                    118                    119                    120
                      A                      A                      A
 Frequencies --   3211.3598              3213.3744              3230.8292
 Red. masses --      1.0889                 1.0908                 1.1063
 Frc consts  --      6.6164                 6.6364                 6.8036
 IR Inten    --     18.6205                22.3299                 4.9523

                    121                    122                    123
                      A                      A                      A
 Frequencies --   3237.4148              3248.3521              3255.0892
 Red. masses --      1.0896                 1.0937                 1.0930
 Frc consts  --      6.7283                 6.7998                 6.8231
 IR Inten    --      7.3809                 8.4269                 1.1069

                    124                    125                    126
                      A                      A                      A
 Frequencies --   3258.9203              3489.1532              3799.8230
 Red. masses --      1.0976                 1.0764                 1.0664
 Frc consts  --      6.8681                 7.7210                 9.0723
 IR Inten    --      6.0906                61.7706               109.1428

 - Thermochemistry -
 -------------------
 Temperature   298.150 Kelvin.  Pressure   1.00000 Atm.
 Atom     1 has atomic number  8 and mass  15.99491

 Molecular mass:   283.18104 amu.
 Principal axes and moments of inertia in atomic units:
                           1         2         3
     Eigenvalues --  3180.212588608.937109643.73020
           X            0.99999   0.00054  -0.00389
           Y           -0.00051   0.99997   0.00709
           Z            0.00389  -0.00708   0.99997
 This molecule is an asymmetric top.
 Rotational symmetry number  1.
 Warning -- assumption of classical behavior for rotation
           may cause significant error
 Rotational temperatures (Kelvin)      0.02724     0.01006     0.00898
 Rotational constants (GHZ):           0.56749     0.20964     0.18714
 Zero-point vibrational energy    1032652.0 (Joules/Mol)
                                  246.80975 (Kcal/Mol)
 Warning -- explicit consideration of  27 degrees of freedom as
           vibrations may cause significant error
 Vibrational temperatures:     41.22    66.68    74.62    96.32   188.82
          (Kelvin)            236.65   265.12   281.69   334.07   343.46
                              361.08   381.20   414.22   440.81   497.65
                              555.87   582.10   599.86   606.44   621.80
                              665.32   691.90   736.06   758.47   784.04
                              835.33   861.94   901.78   924.14   946.98
                             1010.84  1115.10  1122.12  1129.77  1153.27
                             1182.51  1188.16  1212.97  1225.69  1261.48
                             1277.22  1286.89  1318.33  1364.95  1367.97
                             1398.26  1409.93  1425.69  1441.48  1463.11
                             1480.82  1483.10  1486.27  1500.15  1529.49
                             1539.22  1561.70  1590.24  1592.62  1613.46
                             1679.94  1685.75  1687.90  1704.21  1719.72
                             1755.39  1770.09  1798.97  1799.48  1834.31
                             1851.33  1854.99  1873.72  1877.76  1909.22
                             1931.94  1947.29  1950.23  1964.37  1981.51
                             1990.38  1997.92  2016.10  2041.45  2050.35
                             2064.95  2075.51  2083.32  2093.71  2106.86
                             2129.48  2156.29  2181.71  2188.46  2194.60
                             2195.81  2200.03  2206.96  2226.75  2276.04
                             2395.47  2436.78  2463.05  4382.40  4444.54
                             4465.55  4482.05  4482.79  4495.55  4509.09
                             4522.00  4536.99  4548.53  4554.02  4559.61
                             4572.73  4581.46  4620.43  4623.33  4648.44
                             4657.92  4673.65  4683.35  4688.86  5020.11
                             5467.10

 Zero-point correction=                           0.393316 (Hartree/Particle)
 Thermal correction to Energy=                    0.410353
 Thermal correction to Enthalpy=                  0.411297
 Thermal correction to Gibbs Free Energy=         0.348414
 Sum of electronic and zero-point Energies=           -883.548921
 Sum of electronic and thermal Energies=              -883.531885
 Sum of electronic and thermal Enthalpies=            -883.530941
 Sum of electronic and thermal Free Energies=         -883.593824

                     E (Thermal)             CV                S
                      KCal/Mol        Cal/Mol-Kelvin    Cal/Mol-Kelvin
 Total                  257.500             70.676            132.349
 Electronic               0.000              0.000              0.000
 Translational            0.889              2.981             42.821
 Rotational               0.889              2.981             33.934
 Vibrational            255.723             64.714             55.594
 Vibration     1          0.593              1.984              5.921
 Vibration     2          0.595              1.979              4.968
 Vibration     3          0.596              1.977              4.745
 Vibration     4          0.598              1.970              4.241
 Vibration     5          0.612              1.922              2.928
 Vibration     6          0.623              1.886              2.498
 Vibration     7          0.631              1.861              2.285
 Vibration     8          0.636              1.846              2.172
 Vibration     9          0.653              1.792              1.862
 Vibration    10          0.657              1.781              1.812
 Vibration    11          0.663              1.761              1.724
 Vibration    12          0.671              1.737              1.629
 Vibration    13          0.685              1.696              1.486
 Vibration    14          0.697              1.662              1.382
 Vibration    15          0.724              1.584              1.185
 Vibration    16          0.755              1.499              1.014
 Vibration    17          0.770              1.460              0.946
 Vibration    18          0.780              1.433              0.902
 Vibration    19          0.784              1.424              0.887
 Vibration    20          0.793              1.400              0.852
 Vibration    21          0.820              1.333              0.759
 Vibration    22          0.837              1.292              0.708
 Vibration    23          0.867              1.224              0.630
 Vibration    24          0.882              1.190              0.594
 Vibration    25          0.900              1.151              0.555
 Vibration    26          0.937              1.073              0.484
 Vibration    27          0.957              1.034              0.451

                           ! Non-Optimized Parameters !
 Normal termination of Gaussian 16 at Mon Dec 11 13:37:40 2023.
