 Gaussian 16, Revision C.01,
 Gaussian 16:  ES64L-G16RevC.01  3-Jul-2019

 ----------------------------------------------------------------------
 # m062x 6-31g(d) scrf=(iefpcm,solvent=benzene) opt=(maxcycles=50,maxst
 ep=10) freq=noraman
 ----------------------------------------------------------------------

 -------------
 Structure1280
 -------------
 Symbolic Z-matrix:
 Charge =  0 Multiplicity = 1

 SCF Done:  E(RM062X) =  -950.328771753     A.U. after   13 cycles
 SCF Done:  E(RM062X) =  -950.337601035     A.U. after   12 cycles
 SCF Done:  E(RM062X) =  -950.343790201     A.U. after   12 cycles
 SCF Done:  E(RM062X) =  -950.342864456     A.U. after   13 cycles
 SCF Done:  E(RM062X) =  -950.345934470     A.U. after   12 cycles
 SCF Done:  E(RM062X) =  -950.347001673     A.U. after   12 cycles
 SCF Done:  E(RM062X) =  -950.347366776     A.U. after   12 cycles
 SCF Done:  E(RM062X) =  -950.347553694     A.U. after   10 cycles
 SCF Done:  E(RM062X) =  -950.347630148     A.U. after   11 cycles
 SCF Done:  E(RM062X) =  -950.347661027     A.U. after   10 cycles
 SCF Done:  E(RM062X) =  -950.347680059     A.U. after   10 cycles
 SCF Done:  E(RM062X) =  -950.347690834     A.U. after    9 cycles
 SCF Done:  E(RM062X) =  -950.347697916     A.U. after    9 cycles
 SCF Done:  E(RM062X) =  -950.347703328     A.U. after    9 cycles
 SCF Done:  E(RM062X) =  -950.347707869     A.U. after    9 cycles
 SCF Done:  E(RM062X) =  -950.347709473     A.U. after    9 cycles
 SCF Done:  E(RM062X) =  -950.347710153     A.U. after    9 cycles
 SCF Done:  E(RM062X) =  -950.347710281     A.U. after    7 cycles
 SCF Done:  E(RM062X) =  -950.347710291     A.U. after    6 cycles
 Optimization completed.
    -- Stationary point found.
 Normal termination of Gaussian 16 at Mon Dec 11 13:28:29 2023.

 --------------------------------------------------------------------
 #N Geom=AllCheck Guess=TCheck SCRF=Check GenChk RM062X/6-31G(d) Freq
 --------------------------------------------------------------------

 Structure from the checkpoint file:  "inoue_OPLS3e_1_opt_freq.chk"
 -------------
 Structure1280
 -------------
 Charge =  0 Multiplicity = 1

                         Standard orientation:
 ---------------------------------------------------------------------
 Center     Atomic      Atomic             Coordinates (Angstroms)
 Number     Number       Type             X           Y           Z
 ---------------------------------------------------------------------
      1          7           0        0.512656   -0.310612    0.365287
      2          6           0       -1.500503    0.548956    1.375982
      3          7           0       -1.406678    1.579941    0.355381
      4          6           0        0.948169    1.063133    0.141302
      5          1           0       -1.087833    0.921318    2.327567
      6          6           0       -2.957697    0.146860    1.622510
      7          1           0        1.367736    1.480089    1.071099
      8          6           0        2.021360    1.107760   -0.949793
      9          8           0       -0.965048   -1.808566    1.217566
     10          6           0       -0.637745   -0.651624    0.977808
     11          8           0       -0.151649    2.851386   -1.049488
     12          6           0       -0.251144    1.932453   -0.256463
     13          1           0        1.170416   -1.060063    0.171417
     14          1           0       -2.244927    2.080423    0.081354
     15          1           0        2.288436    2.156948   -1.098082
     16          1           0        1.578488    0.752674   -1.885963
     17          6           0        5.426154   -1.287916    0.179141
     18          6           0        4.522360   -1.764284   -0.765089
     19          6           0        3.430789   -0.982671   -1.142755
     20          6           0        3.228837    0.280664   -0.581591
     21          6           0        4.144700    0.748725    0.366498
     22          6           0        5.235507   -0.026835    0.743643
     23          1           0        6.278294   -1.892711    0.472520
     24          1           0        4.666589   -2.742084   -1.213985
     25          1           0        2.733950   -1.350955   -1.892802
     26          1           0        4.002515    1.734142    0.804779
     27          1           0        5.940929    0.353163    1.476168
     28          1           0       -3.487056    1.006905    2.044631
     29          1           0       -2.953109   -0.640276    2.382066
     30          6           0       -3.681065   -0.299579    0.395690
     31          6           0       -4.682697    0.279738   -0.342628
     32          7           0       -5.024589   -0.510544   -1.412781
     33          6           0       -4.236775   -1.557469   -1.324826
     34          7           0       -3.407550   -1.480872   -0.252517
     35          1           0       -5.183511    1.219306   -0.147959
     36          1           0       -4.223647   -2.398080   -2.004598
     37          1           0       -2.692065   -2.136211    0.043020
 ---------------------------------------------------------------------

 SCF Done:  E(RM062X) =  -950.347710291     A.U. after    1 cycles

 The electronic state is 1-A.
 Alpha  occ. eigenvalues --  -19.62956 -19.62030 -14.80703 -14.80497 -14.79948
 Alpha  occ. eigenvalues --  -14.73512 -10.67443 -10.66709 -10.61822 -10.61612
 Alpha  occ. eigenvalues --  -10.59607 -10.57884 -10.57487 -10.56909 -10.56440
 Alpha  occ. eigenvalues --  -10.56009 -10.55974 -10.55931 -10.55881 -10.55747
 Alpha  occ. eigenvalues --  -10.55393  -1.18278  -1.17008  -1.12316  -1.07463
 Alpha  occ. eigenvalues --   -1.03845  -0.97106  -0.96859  -0.90798  -0.89715
 Alpha  occ. eigenvalues --   -0.84919  -0.84410  -0.82937  -0.77137  -0.76102
 Alpha  occ. eigenvalues --   -0.70908  -0.69750  -0.68855  -0.67275  -0.66525
 Alpha  occ. eigenvalues --   -0.64264  -0.62124  -0.61889  -0.60163  -0.59184
 Alpha  occ. eigenvalues --   -0.58117  -0.55752  -0.53409  -0.53301  -0.51981
 Alpha  occ. eigenvalues --   -0.51869  -0.50805  -0.49949  -0.49748  -0.49311
 Alpha  occ. eigenvalues --   -0.49010  -0.47614  -0.47026  -0.46616  -0.46367
 Alpha  occ. eigenvalues --   -0.45077  -0.44740  -0.43849  -0.43180  -0.40401
 Alpha  occ. eigenvalues --   -0.40280  -0.36294  -0.35735  -0.33540  -0.33475
 Alpha  occ. eigenvalues --   -0.32374  -0.31679  -0.31285  -0.30474  -0.27463
 Alpha virt. eigenvalues --    0.02046   0.02354   0.04471   0.05768   0.07431
 Alpha virt. eigenvalues --    0.11093   0.12541   0.13424   0.13992   0.15205
 Alpha virt. eigenvalues --    0.15616   0.16240   0.17238   0.18288   0.18630

 Mulliken charges:
               1
     1  N   -0.667892
     2  C   -0.060390
     3  N   -0.670288
     4  C   -0.067516
     5  H    0.212541
     6  C   -0.391201
     7  H    0.206402
     8  C   -0.381114
     9  O   -0.567136
    10  C    0.654264
    11  O   -0.537643
    12  C    0.659201
    13  H    0.377483
    14  H    0.373330
    15  H    0.210554
    16  H    0.191024
    17  C   -0.170046
    18  C   -0.163360
    19  C   -0.227442
    20  C    0.091070
    21  C   -0.198419
    22  C   -0.166986
    23  H    0.177196
    24  H    0.178984
    25  H    0.175632
    26  H    0.170721
    27  H    0.177838
    28  H    0.194987
    29  H    0.212209
    30  C    0.279598
    31  C   -0.112314
    32  N   -0.477191
    33  C    0.206405
    34  N   -0.652641
    35  H    0.166405
    36  H    0.195454
    37  H    0.400281
 Sum of Mulliken charges =  -0.00000

 Dipole moment (field-independent basis, Debye):
    X=              4.7965    Y=             -1.1311    Z=              3.7583  Tot=              6.1977
 Quadrupole moment (field-independent basis, Debye-Ang):
   XX=           -131.8073   YY=           -123.2916   ZZ=           -122.3970
   XY=             -5.2846   XZ=             -8.9193   YZ=             14.8548

  Exact polarizability:     225.149     -16.069     191.761      24.083      14.449     155.296
 Approx polarizability:     217.194     -17.968     231.989      30.611      13.605     189.134

                      1                      2                      3
                      A                      A                      A
 Frequencies --      8.3784                28.3588                43.9348
 Red. masses --      6.5793                 4.3137                 7.1966
 Frc consts  --      0.0003                 0.0020                 0.0082
 IR Inten    --      0.5338                 0.2892                 0.5543

                      4                      5                      6
                      A                      A                      A
 Frequencies --     47.8244                67.9927                73.0483
 Red. masses --      4.6201                 5.1062                 4.4844
 Frc consts  --      0.0062                 0.0139                 0.0141
 IR Inten    --      0.5338                 1.1632                 5.9056

                      7                      8                      9
                      A                      A                      A
 Frequencies --    121.9258               129.3836               155.2871
 Red. masses --      5.5155                 7.8666                 7.7825
 Frc consts  --      0.0483                 0.0776                 0.1106
 IR Inten    --      1.9088                 0.9639                 7.4348

                     10                     11                     12
                      A                      A                      A
 Frequencies --    187.7880               225.4649               226.4818
 Red. masses --      5.2263                 5.4794                 6.4707
 Frc consts  --      0.1086                 0.1641                 0.1956
 IR Inten    --      3.5472                 0.5722                 2.0114

                     13                     14                     15
                      A                      A                      A
 Frequencies --    269.1535               335.0817               349.1981
 Red. masses --      7.4640                 2.8830                 1.8882
 Frc consts  --      0.3186                 0.1907                 0.1357
 IR Inten    --      5.5634                 3.9216                 2.7174

                     16                     17                     18
                      A                      A                      A
 Frequencies --    374.3172               407.8284               417.0275
 Red. masses --      2.5145                 3.7271                 2.9698
 Frc consts  --      0.2076                 0.3652                 0.3043
 IR Inten    --     22.1799                 0.8308                 0.2147

                     19                     20                     21
                      A                      A                      A
 Frequencies --    441.9226               465.1158               493.1805
 Red. masses --      2.2655                 3.4707                 3.7174
 Frc consts  --      0.2607                 0.4424                 0.5327
 IR Inten    --     63.6645                26.7157                21.5315

                     22                     23                     24
                      A                      A                      A
 Frequencies --    515.8597               526.3833               574.7855
 Red. masses --      2.7887                 3.2184                 4.5681
 Frc consts  --      0.4372                 0.5254                 0.8892
 IR Inten    --     63.7583                 8.2861                 5.0005

                     25                     26                     27
                      A                      A                      A
 Frequencies --    608.6381               623.1177               631.1241
 Red. masses --      1.4890                 3.8407                 5.8945
 Frc consts  --      0.3250                 0.8786                 1.3833
 IR Inten    --     63.4290                10.1499                 1.2809

                     28                     29                     30
                      A                      A                      A
 Frequencies --    638.6551               672.1466               677.5487
 Red. masses --      3.7154                 4.0955                 3.4437
 Frc consts  --      0.8929                 1.0902                 0.9314
 IR Inten    --     37.3700                56.4008                31.4241

                     31                     32                     33
                      A                      A                      A
 Frequencies --    693.3268               722.8837               730.1070
 Red. masses --      4.4575                 1.8810                 1.5211
 Frc consts  --      1.2625                 0.5791                 0.4777
 IR Inten    --     33.1872                34.2090                33.3790

                     34                     35                     36
                      A                      A                      A
 Frequencies --    744.7244               771.5764               790.6485
 Red. masses --      2.5721                 1.9886                 2.9062
 Frc consts  --      0.8405                 0.6975                 1.0704
 IR Inten    --     63.9549                48.9713                 8.1924

                     37                     38                     39
                      A                      A                      A
 Frequencies --    835.3702               848.5749               859.4633
 Red. masses --      4.0471                 1.3608                 1.4539
 Frc consts  --      1.6640                 0.5773                 0.6328
 IR Inten    --      2.0562                30.4273                12.1339

                     40                     41                     42
                      A                      A                      A
 Frequencies --    879.4707               890.6561               901.0329
 Red. masses --      1.2513                 3.3985                 2.3561
 Frc consts  --      0.5702                 1.5884                 1.1270
 IR Inten    --      0.0342                15.0342                 6.6885

                     43                     44                     45
                      A                      A                      A
 Frequencies --    942.7275               949.0723               956.6468
 Red. masses --      4.1488                 2.0442                 1.9968
 Frc consts  --      2.1724                 1.0849                 1.0767
 IR Inten    --      9.1069                 3.6606                23.2688

                     46                     47                     48
                      A                      A                      A
 Frequencies --    967.8639               999.0174              1018.2020
 Red. masses --      2.5610                 1.3587                 5.5832
 Frc consts  --      1.4135                 0.7989                 3.4104
 IR Inten    --      4.0031                 0.1293                 1.1022

                     49                     50                     51
                      A                      A                      A
 Frequencies --   1025.5245              1026.8906              1068.0838
 Red. masses --      1.3385                 3.3935                 2.1920
 Frc consts  --      0.8294                 2.1084                 1.4734
 IR Inten    --      0.2363                 7.1140                 1.7637

                     52                     53                     54
                      A                      A                      A
 Frequencies --   1075.2425              1082.1137              1124.1576
 Red. masses --      2.0703                 2.0291                 1.5703
 Frc consts  --      1.4103                 1.3999                 1.1692
 IR Inten    --      3.2607                 9.1910                 4.5674

                     55                     56                     57
                      A                      A                      A
 Frequencies --   1142.5897              1148.8468              1161.7987
 Red. masses --      1.4806                 2.0937                 1.7723
 Frc consts  --      1.1389                 1.6281                 1.4095
 IR Inten    --     75.6836                21.2613                 3.3340

                     58                     59                     60
                      A                      A                      A
 Frequencies --   1168.7249              1184.0499              1208.6507
 Red. masses --      1.8507                 1.1192                 1.1158
 Frc consts  --      1.4894                 0.9245                 0.9604
 IR Inten    --      7.3023                 0.1975                 0.3121

                     61                     62                     63
                      A                      A                      A
 Frequencies --   1235.2617              1244.2738              1248.1961
 Red. masses --      1.5361                 2.1284                 1.5112
 Frc consts  --      1.3810                 1.9415                 1.3872
 IR Inten    --     23.3648                 4.7554                13.1277

                     64                     65                     66
                      A                      A                      A
 Frequencies --   1286.2248              1292.8346              1296.7878
 Red. masses --      1.4184                 2.3725                 1.3003
 Frc consts  --      1.3825                 2.3364                 1.2883
 IR Inten    --      2.3115                 3.0954                12.1669

                     67                     68                     69
                      A                      A                      A
 Frequencies --   1315.6026              1325.0339              1345.1713
 Red. masses --      1.6422                 1.4941                 3.2428
 Frc consts  --      1.6746                 1.5456                 3.4572
 IR Inten    --      4.8009                15.4585                10.6803

                     70                     71                     72
                      A                      A                      A
 Frequencies --   1359.8900              1368.3135              1384.1222
 Red. masses --      1.5003                 1.4836                 1.5623
 Frc consts  --      1.6347                 1.6365                 1.7634
 IR Inten    --      6.7538                45.6117                44.6026

                     73                     74                     75
                      A                      A                      A
 Frequencies --   1392.9920              1412.9203              1433.7527
 Red. masses --      1.5975                 2.1392                 3.0180
 Frc consts  --      1.8264                 2.5162                 3.6553
 IR Inten    --     17.4894                45.3198                51.6515

                     76                     77                     78
                      A                      A                      A
 Frequencies --   1453.1634              1472.2971              1476.6609
 Red. masses --      2.6238                 2.4701                 2.8977
 Frc consts  --      3.2645                 3.1547                 3.7227
 IR Inten    --    182.9156               341.4081                61.6582

                     79                     80                     81
                      A                      A                      A
 Frequencies --   1494.0339              1499.4932              1510.3738
 Red. masses --      1.2995                 1.1782                 2.0955
 Frc consts  --      1.7090                 1.5608                 2.8164
 IR Inten    --      5.4512                 4.1059                10.9870

                     82                     83                     84
                      A                      A                      A
 Frequencies --   1528.7014              1553.5006              1554.6023
 Red. masses --      3.2948                 4.2984                 2.4516
 Frc consts  --      4.5365                 6.1120                 3.4908
 IR Inten    --     19.2984                35.2453                15.3646

                     85                     86                     87
                      A                      A                      A
 Frequencies --   1661.4031              1675.7240              1696.9239
 Red. masses --      5.1699                 6.0362                 6.1260
 Frc consts  --      8.4077                 9.9866                10.3933
 IR Inten    --     15.1981                 1.9743                 5.1214

                     88                     89                     90
                      A                      A                      A
 Frequencies --   1810.9972              1843.3091              3028.5177
 Red. masses --      9.2420                10.3334                 1.0823
 Frc consts  --     17.8588                20.6867                 5.8489
 IR Inten    --    676.8538               474.1638                36.8560

                     91                     92                     93
                      A                      A                      A
 Frequencies --   3033.7534              3108.0292              3111.6468
 Red. masses --      1.0824                 1.0616                 1.0631
 Frc consts  --      5.8693                 6.0421                 6.0648
 IR Inten    --     10.2454                15.8703                 9.2904

                     94                     95                     96
                      A                      A                      A
 Frequencies --   3155.8188              3167.4297              3205.9841
 Red. masses --      1.1042                 1.1029                 1.0895
 Frc consts  --      6.4791                 6.5194                 6.5979
 IR Inten    --      3.9325                 4.7211                 8.5387

                     97                     98                     99
                      A                      A                      A
 Frequencies --   3207.1143              3228.2795              3236.9293
 Red. masses --      1.0892                 1.0887                 1.0939
 Frc consts  --      6.6007                 6.6853                 6.7528
 IR Inten    --      8.9085                 1.3336                21.6635

                    100                    101                    102
                      A                      A                      A
 Frequencies --   3248.2824              3281.8627              3301.0097
 Red. masses --      1.0985                 1.0969                 1.0981
 Frc consts  --      6.8289                 6.9609                 7.0499
 IR Inten    --     16.6141                 8.1845                 1.4078

                    103                    104                    105
                      A                      A                      A
 Frequencies --   3589.9688              3614.5849              3618.2274
 Red. masses --      1.0772                 1.0776                 1.0833
 Frc consts  --      8.1791                 8.2949                 8.3559
 IR Inten    --    148.9460                36.9041               233.9082

 - Thermochemistry -
 -------------------
 Temperature   298.150 Kelvin.  Pressure   1.00000 Atm.
 Atom     1 has atomic number  7 and mass  14.00307

 Molecular mass:   284.12733 amu.
 Principal axes and moments of inertia in atomic units:
                           1         2         3
     Eigenvalues --  2609.75234********************
           X            0.99999  -0.00385  -0.00283
           Y            0.00399   0.99880   0.04875
           Z            0.00264  -0.04876   0.99881
 This molecule is an asymmetric top.
 Rotational symmetry number  1.
 Warning -- assumption of classical behavior for rotation
           may cause significant error
 Rotational temperatures (Kelvin)      0.03319     0.00745     0.00693
 Rotational constants (GHZ):           0.69154     0.15516     0.14441
 Zero-point vibrational energy     798896.1 (Joules/Mol)
                                  190.94074 (Kcal/Mol)
 Warning -- explicit consideration of  25 degrees of freedom as
           vibrations may cause significant error
 Vibrational temperatures:     12.05    40.80    63.21    68.81    97.83
          (Kelvin)            105.10   175.42   186.15   223.42   270.19
                              324.39   325.86   387.25   482.11   502.42
                              538.56   586.77   600.01   635.83   669.20
                              709.58   742.21   757.35   826.99   875.69
                              896.53   908.05   918.88   967.07   974.84
                              997.54  1040.07  1050.46  1071.49  1110.13
                             1137.57  1201.91  1220.91  1236.58  1265.36
                             1281.46  1296.39  1356.37  1365.50  1376.40
                             1392.54  1437.36  1464.97  1475.50  1477.47
                             1536.73  1547.03  1556.92  1617.41  1643.93
                             1652.93  1671.57  1681.53  1703.58  1738.98
                             1777.27  1790.23  1795.88  1850.59  1860.10
                             1865.79  1892.86  1906.43  1935.40  1956.58
                             1968.70  1991.44  2004.20  2032.88  2062.85
                             2090.78  2118.31  2124.59  2149.58  2157.44
                             2173.09  2199.46  2235.14  2236.73  2390.39
                             2410.99  2441.49  2605.62  2652.11  4357.36
                             4364.89  4471.76  4476.97  4540.52  4557.22
                             4612.70  4614.32  4644.77  4657.22  4673.55
                             4721.87  4749.42  5165.16  5200.58  5205.82

 Zero-point correction=                           0.304283 (Hartree/Particle)
 Thermal correction to Energy=                    0.321821
 Thermal correction to Enthalpy=                  0.322765
 Thermal correction to Gibbs Free Energy=         0.255330
 Sum of electronic and zero-point Energies=           -950.043427
 Sum of electronic and thermal Energies=              -950.025889
 Sum of electronic and thermal Enthalpies=            -950.024945
 Sum of electronic and thermal Free Energies=         -950.092380

                     E (Thermal)             CV                S
                      KCal/Mol        Cal/Mol-Kelvin    Cal/Mol-Kelvin
 Total                  201.946             67.839            141.929
 Electronic               0.000              0.000              0.000
 Translational            0.889              2.981             42.831
 Rotational               0.889              2.981             34.294
 Vibrational            200.168             61.878             64.804
 Vibration     1          0.593              1.987              8.363
 Vibration     2          0.593              1.984              5.941
 Vibration     3          0.595              1.980              5.073
 Vibration     4          0.595              1.978              4.905
 Vibration     5          0.598              1.969              4.211
 Vibration     6          0.599              1.967              4.069
 Vibration     7          0.609              1.931              3.070
 Vibration     8          0.612              1.924              2.955
 Vibration     9          0.620              1.897              2.606
 Vibration    10          0.632              1.857              2.250
 Vibration    11          0.650              1.802              1.915
 Vibration    12          0.650              1.801              1.907
 Vibration    13          0.674              1.730              1.602
 Vibration    14          0.716              1.605              1.235
 Vibration    15          0.726              1.577              1.170
 Vibration    16          0.745              1.525              1.062
 Vibration    17          0.772              1.453              0.934
 Vibration    18          0.780              1.433              0.902
 Vibration    19          0.802              1.379              0.821
 Vibration    20          0.823              1.327              0.751
 Vibration    21          0.849              1.265              0.675
 Vibration    22          0.871              1.215              0.620
 Vibration    23          0.881              1.192              0.595
 Vibration    24          0.931              1.086              0.495
 Vibration    25          0.968              1.014              0.435

                           ! Non-Optimized Parameters !
 Normal termination of Gaussian 16 at Mon Dec 11 13:34:47 2023.
