 Gaussian 16, Revision C.01,
 Gaussian 16:  ES64L-G16RevC.01  3-Jul-2019

 ----------------------------------------------------------------------
 # m062x 6-31g(d) scrf=(iefpcm,solvent=benzene) opt=(maxcycles=50,maxst
 ep=10) freq=noraman
 ----------------------------------------------------------------------

 ----------
 Structure3
 ----------
 Symbolic Z-matrix:
 Charge =  0 Multiplicity = 1

 SCF Done:  E(RM062X) =  -2423.11251579     A.U. after   13 cycles
 SCF Done:  E(RM062X) =  -2423.12359212     A.U. after   10 cycles
 SCF Done:  E(RM062X) =  -2423.13555239     A.U. after   11 cycles
 SCF Done:  E(RM062X) =  -2423.13806295     A.U. after   12 cycles
 SCF Done:  E(RM062X) =  -2423.14027844     A.U. after   11 cycles
 SCF Done:  E(RM062X) =  -2423.14182925     A.U. after   11 cycles
 SCF Done:  E(RM062X) =  -2423.14154267     A.U. after   11 cycles
 SCF Done:  E(RM062X) =  -2423.14242131     A.U. after   11 cycles
 SCF Done:  E(RM062X) =  -2423.14269185     A.U. after   10 cycles
 SCF Done:  E(RM062X) =  -2423.14243253     A.U. after   10 cycles
 SCF Done:  E(RM062X) =  -2423.14282555     A.U. after   10 cycles
 SCF Done:  E(RM062X) =  -2423.14282398     A.U. after    9 cycles
 SCF Done:  E(RM062X) =  -2423.14282536     A.U. after   10 cycles
 SCF Done:  E(RM062X) =  -2423.14282536     A.U. after    9 cycles
 SCF Done:  E(RM062X) =  -2423.14282654     A.U. after    9 cycles
 SCF Done:  E(RM062X) =  -2423.14282688     A.U. after    7 cycles
 SCF Done:  E(RM062X) =  -2423.14282732     A.U. after    9 cycles
 SCF Done:  E(RM062X) =  -2423.14282734     A.U. after    8 cycles
 SCF Done:  E(RM062X) =  -2423.14282738     A.U. after    6 cycles
 Optimization completed.
    -- Stationary point found.
 Normal termination of Gaussian 16 at Mon Dec 11 14:02:01 2023.

 --------------------------------------------------------------------
 #N Geom=AllCheck Guess=TCheck SCRF=Check GenChk RM062X/6-31G(d) Freq
 --------------------------------------------------------------------

 Structure from the checkpoint file:  "mikami_OPLS3e_1_opt_freq.chk"
 ----------
 Structure3
 ----------
 Charge =  0 Multiplicity = 1

                         Standard orientation:
 ---------------------------------------------------------------------
 Center     Atomic      Atomic             Coordinates (Angstroms)
 Number     Number       Type             X           Y           Z
 ---------------------------------------------------------------------
      1          6           0        0.276032    3.125333   -0.751719
      2          6           0       -0.179677    4.443732   -0.736203
      3          6           0       -0.623993    5.018305    0.449237
      4          6           0       -0.608813    4.272845    1.627877
      5          6           0       -0.156478    2.958969    1.614504
      6          6           0        0.285569    2.375472    0.423608
      7          1           0        0.639220    2.684233   -1.674799
      8          1           0       -0.180274    5.020450   -1.655513
      9          1           0       -0.977265    6.044283    0.459391
     10          1           0       -0.947213    4.716586    2.558589
     11          1           0       -0.139914    2.384664    2.538384
     12          6           0        0.698436    0.915155    0.446239
     13          7           0        1.359815    0.504595   -0.802233
     14          1           0        1.369651    0.746623    1.295615
     15          6           0       -0.522463   -0.012258    0.682951
     16          1           0       -0.925512    0.255141    1.665618
     17          7           0       -1.530890    0.274888   -0.350463
     18          6           0        0.863563   -4.093424    0.730435
     19          6           0        0.205598   -3.607511   -0.394967
     20          6           0       -0.276203   -2.299627   -0.415783
     21          6           0       -0.101468   -1.469419    0.692461
     22          6           0        0.557514   -1.963834    1.820333
     23          6           0        1.037413   -3.268610    1.840660
     24          1           0        1.236109   -5.112561    0.746165
     25          1           0        0.060318   -4.246305   -1.260254
     26          1           0       -0.814862   -1.931932   -1.285566
     27          1           0        0.691765   -1.323490    2.689551
     28          1           0        1.543408   -3.643014    2.724786
     29          1           0        0.978486   -0.310659   -1.281684
     30          1           0       -1.354621    1.113996   -0.907071
     31         16           0        2.988269    0.596779   -0.937054
     32          8           0        3.434194    1.774406   -0.226913
     33          6           0        3.589895   -0.854975    0.033923
     34          8           0        3.342153    0.304291   -2.308356
     35         16           0       -3.130942    0.261682    0.063315
     36          8           0       -3.792658    1.291844   -0.710220
     37          6           0       -3.704591   -1.336320   -0.652622
     38          8           0       -3.290267    0.124456    1.496716
     39          9           0        4.891103   -1.003665   -0.142227
     40          9           0        3.336388   -0.667856    1.325805
     41          9           0        2.952890   -1.941511   -0.382889
     42          9           0       -3.314631   -1.425968   -1.916974
     43          9           0       -3.205165   -2.348600    0.038054
     44          9           0       -5.025962   -1.364927   -0.592872
 ---------------------------------------------------------------------

 SCF Done:  E(RM062X) =  -2423.14282738     A.U. after    1 cycles

 The electronic state is 1-A.
 Alpha  occ. eigenvalues --  -90.18965 -90.18949 -25.32549 -25.32392 -25.32349
 Alpha  occ. eigenvalues --  -25.32288 -25.32265 -25.32184 -19.67413 -19.67172
 Alpha  occ. eigenvalues --  -19.67116 -19.67090 -14.82827 -14.82768 -10.84092
 Alpha  occ. eigenvalues --  -10.83965 -10.63730 -10.63464 -10.58085 -10.57734
 Alpha  occ. eigenvalues --  -10.56974 -10.56904 -10.56699 -10.56676 -10.56556
 Alpha  occ. eigenvalues --  -10.56484 -10.56321 -10.56278 -10.56167 -10.56002
 Alpha  occ. eigenvalues --   -8.50154  -8.50086  -6.42346  -6.42302  -6.42281
 Alpha  occ. eigenvalues --   -6.42236  -6.42214  -6.42167  -1.49804  -1.49780
 Alpha  occ. eigenvalues --   -1.40437  -1.40403  -1.40385  -1.40362  -1.27616
 Alpha  occ. eigenvalues --   -1.27583  -1.16297  -1.16245  -1.09440  -1.06163
 Alpha  occ. eigenvalues --   -0.97909  -0.97486  -0.91827  -0.87993  -0.87005
 Alpha  occ. eigenvalues --   -0.86581  -0.85784  -0.85280  -0.82563  -0.78595
 Alpha  occ. eigenvalues --   -0.77478  -0.75614  -0.72453  -0.72106  -0.71995
 Alpha  occ. eigenvalues --   -0.71957  -0.71592  -0.70617  -0.70173  -0.69489
 Alpha  occ. eigenvalues --   -0.67996  -0.67580  -0.63531  -0.62052  -0.61888
 Alpha  occ. eigenvalues --   -0.61639  -0.60387  -0.59416  -0.59332  -0.59287
 Alpha  occ. eigenvalues --   -0.59093  -0.57741  -0.56788  -0.56602  -0.56135
 Alpha  occ. eigenvalues --   -0.55825  -0.55704  -0.55508  -0.55073  -0.54880
 Alpha  occ. eigenvalues --   -0.54418  -0.53875  -0.53424  -0.53377  -0.52168
 Alpha  occ. eigenvalues --   -0.51556  -0.50607  -0.50408  -0.49926  -0.49771
 Alpha  occ. eigenvalues --   -0.48996  -0.45255  -0.44870  -0.44735  -0.43980
 Alpha  occ. eigenvalues --   -0.43152  -0.43039  -0.42508  -0.41855  -0.41616
 Alpha  occ. eigenvalues --   -0.41286  -0.41127  -0.40776  -0.40057  -0.39785
 Alpha  occ. eigenvalues --   -0.37969  -0.37032  -0.32206  -0.31916  -0.31540
 Alpha  occ. eigenvalues --   -0.30753
 Alpha virt. eigenvalues --    0.00058   0.01130   0.01762   0.02564   0.07308
 Alpha virt. eigenvalues --    0.08789   0.09262   0.09454   0.10620   0.10715
 Alpha virt. eigenvalues --    0.11037   0.11711   0.12217   0.13140   0.13859

 Mulliken charges:
               1
     1  C   -0.204635
     2  C   -0.164028
     3  C   -0.161200
     4  C   -0.167164
     5  C   -0.194926
     6  C    0.113722
     7  H    0.194514
     8  H    0.184575
     9  H    0.182492
    10  H    0.184586
    11  H    0.175479
    12  C   -0.089192
    13  N   -0.739223
    14  H    0.217651
    15  C   -0.091093
    16  H    0.232913
    17  N   -0.761363
    18  C   -0.162249
    19  C   -0.163254
    20  C   -0.226306
    21  C    0.113740
    22  C   -0.202344
    23  C   -0.167409
    24  H    0.183759
    25  H    0.185483
    26  H    0.183713
    27  H    0.176962
    28  H    0.185281
    29  H    0.407810
    30  H    0.409794
    31  S    1.197701
    32  O   -0.533312
    33  C    0.636735
    34  O   -0.524769
    35  S    1.210434
    36  O   -0.529969
    37  C    0.644451
    38  O   -0.530281
    39  F   -0.230237
    40  F   -0.239436
    41  F   -0.236620
    42  F   -0.238566
    43  F   -0.230482
    44  F   -0.233739
 Sum of Mulliken charges =  -0.00000

 Dipole moment (field-independent basis, Debye):
    X=              0.2207    Y=             -2.4628    Z=              1.7848  Tot=              3.0495
 Quadrupole moment (field-independent basis, Debye-Ang):
   XX=           -213.6684   YY=           -163.4037   ZZ=           -178.3880
   XY=             -8.0163   XZ=             11.7098   YZ=              2.2525

  Exact polarizability:     195.673     -36.592     291.687       4.271       0.282     222.090
 Approx polarizability:     209.251     -37.480     304.925       8.083       3.449     300.960

                      1                      2                      3
                      A                      A                      A
 Frequencies --     12.9875                26.5473                30.7825
 Red. masses --     12.0430                 9.5350                 8.6562
 Frc consts  --      0.0012                 0.0040                 0.0048
 IR Inten    --      1.2475                 1.1835                 0.7695

                      4                      5                      6
                      A                      A                      A
 Frequencies --     39.3301                49.1125                51.6010
 Red. masses --     10.0153                 4.7540                 8.1956
 Frc consts  --      0.0091                 0.0068                 0.0129
 IR Inten    --      0.6473                 0.5765                 0.3995

                      7                      8                      9
                      A                      A                      A
 Frequencies --     53.5298                69.8509                74.6768
 Red. masses --      7.4579                11.2002                 8.4294
 Frc consts  --      0.0126                 0.0322                 0.0277
 IR Inten    --      0.6873                 0.3295                 1.1025

                     10                     11                     12
                      A                      A                      A
 Frequencies --     90.3966                98.9666               106.0877
 Red. masses --      8.3400                10.6478                 4.2356
 Frc consts  --      0.0402                 0.0614                 0.0281
 IR Inten    --      0.3994                 3.0242                 0.2015

                     13                     14                     15
                      A                      A                      A
 Frequencies --    118.3787               144.8025               168.8814
 Red. masses --      8.3788                 6.6146                12.6074
 Frc consts  --      0.0692                 0.0817                 0.2119
 IR Inten    --      0.8603                 5.9189                 0.5515

                     16                     17                     18
                      A                      A                      A
 Frequencies --    176.5956               193.3857               204.2293
 Red. masses --      7.3812                12.6341                14.1275
 Frc consts  --      0.1356                 0.2784                 0.3472
 IR Inten    --      3.4829                 4.5170                 1.6561

                     19                     20                     21
                      A                      A                      A
 Frequencies --    218.9394               252.5931               254.9934
 Red. masses --      5.4998                 6.1790                 7.1841
 Frc consts  --      0.1553                 0.2323                 0.2752
 IR Inten    --      1.4705                 5.7508                 5.1416

                     22                     23                     24
                      A                      A                      A
 Frequencies --    260.1767               285.4586               286.8699
 Red. masses --      7.0521                 9.3557                 7.6016
 Frc consts  --      0.2813                 0.4492                 0.3686
 IR Inten    --      7.6603                 4.0023                 0.5639

                     25                     26                     27
                      A                      A                      A
 Frequencies --    318.9617               323.5816               340.9578
 Red. masses --     11.1105                11.7070                 4.2984
 Frc consts  --      0.6660                 0.7222                 0.2944
 IR Inten    --      0.3187                 0.0471                12.7017

                     28                     29                     30
                      A                      A                      A
 Frequencies --    351.9566               375.5257               382.3660
 Red. masses --      6.6376                10.0715                 6.6953
 Frc consts  --      0.4844                 0.8368                 0.5767
 IR Inten    --      6.8478                 5.4397                 8.5289

                     31                     32                     33
                      A                      A                      A
 Frequencies --    414.7073               419.5560               427.9799
 Red. masses --      2.9314                 2.8975                 2.3451
 Frc consts  --      0.2970                 0.3005                 0.2531
 IR Inten    --      4.6696                 6.7082                30.5758

                     34                     35                     36
                      A                      A                      A
 Frequencies --    449.2115               472.3598               497.2598
 Red. masses --      5.4742                 2.3576                 6.5778
 Frc consts  --      0.6508                 0.3099                 0.9583
 IR Inten    --     19.0873                59.1811                 7.8822

                     37                     38                     39
                      A                      A                      A
 Frequencies --    506.5175               518.0787               536.3842
 Red. masses --      6.1462                 3.8068                 6.4704
 Frc consts  --      0.9291                 0.6020                 1.0968
 IR Inten    --    143.8543                20.3806                 6.5403

                     40                     41                     42
                      A                      A                      A
 Frequencies --    553.1440               563.0105               566.4458
 Red. masses --      5.3402                13.0399                12.6282
 Frc consts  --      0.9627                 2.4353                 2.3873
 IR Inten    --     12.8228                14.8534                 1.6955

                     43                     44                     45
                      A                      A                      A
 Frequencies --    569.6690               585.4000               602.5715
 Red. masses --      8.0961                 8.5171                13.0907
 Frc consts  --      1.5480                 1.7197                 2.8005
 IR Inten    --     13.9741                65.7537               124.9769

                     46                     47                     48
                      A                      A                      A
 Frequencies --    621.7058               629.3838               629.7914
 Red. masses --      5.1903                 6.4185                 6.2064
 Frc consts  --      1.1820                 1.4980                 1.4504
 IR Inten    --    113.5902                 2.6568                 6.4919

                     49                     50                     51
                      A                      A                      A
 Frequencies --    661.2879               663.1387               682.0936
 Red. masses --      5.6776                 5.0814                 5.4274
 Frc consts  --      1.4628                 1.3166                 1.4877
 IR Inten    --      5.7893               126.4174                79.2938

                     52                     53                     54
                      A                      A                      A
 Frequencies --    723.0532               725.7241               769.1808
 Red. masses --      1.9184                 1.9898                 1.7410
 Frc consts  --      0.5909                 0.6174                 0.6069
 IR Inten    --     21.5319                26.4468                 6.7748

                     55                     56                     57
                      A                      A                      A
 Frequencies --    784.7742               791.7620               799.7707
 Red. masses --      2.2522                14.3917                 6.1185
 Frc consts  --      0.8172                 5.3156                 2.3058
 IR Inten    --     90.6872                 2.8007                33.8841

                     58                     59                     60
                      A                      A                      A
 Frequencies --    834.9325               870.7664               879.6792
 Red. masses --      5.0565                 3.8388                 1.2477
 Frc consts  --      2.0768                 1.7150                 0.5689
 IR Inten    --     11.5555                21.1207                 0.0730

                     61                     62                     63
                      A                      A                      A
 Frequencies --    883.9212               931.7052               954.5123
 Red. masses --      1.2576                 2.5064                 1.4314
 Frc consts  --      0.5789                 1.2819                 0.7684
 IR Inten    --      0.5971                47.2877                46.4814

                     64                     65                     66
                      A                      A                      A
 Frequencies --    964.2401               978.4122               992.9767
 Red. masses --      1.8704                 3.5914                 2.8936
 Frc consts  --      1.0246                 2.0256                 1.6810
 IR Inten    --      6.1684               209.6700                42.2060

                     67                     68                     69
                      A                      A                      A
 Frequencies --   1003.5564              1005.8524              1016.5201
 Red. masses --      1.3722                 1.3882                 5.1317
 Frc consts  --      0.8142                 0.8275                 3.1243
 IR Inten    --      1.6209                 2.8730                 7.7809

                     70                     71                     72
                      A                      A                      A
 Frequencies --   1019.1570              1027.9458              1029.4694
 Red. masses --      5.1636                 1.3115                 1.2875
 Frc consts  --      3.1600                 0.8165                 0.8039
 IR Inten    --      0.1940                 1.2111                 0.0386

                     73                     74                     75
                      A                      A                      A
 Frequencies --   1068.8190              1070.0470              1107.8557
 Red. masses --      2.2824                 2.1827                 2.4871
 Frc consts  --      1.5362                 1.4725                 1.7985
 IR Inten    --     11.5743                 3.1144                79.2167

                     76                     77                     78
                      A                      A                      A
 Frequencies --   1115.9245              1132.9769              1145.3596
 Red. masses --      1.8892                 1.8898                 2.8091
 Frc consts  --      1.3861                 1.4292                 2.1712
 IR Inten    --     31.4463                64.8199                11.2473

                     79                     80                     81
                      A                      A                      A
 Frequencies --   1156.6508              1169.1785              1187.6259
 Red. masses --     12.7576                11.4139                 1.1196
 Frc consts  --     10.0560                 9.1928                 0.9304
 IR Inten    --    226.5989               281.9096                 0.1657

                     82                     83                     84
                      A                      A                      A
 Frequencies --   1188.0419              1210.3244              1211.8797
 Red. masses --      1.1206                 1.1219                 1.1220
 Frc consts  --      0.9319                 0.9683                 0.9709
 IR Inten    --      0.1205                 1.1219                 5.1560

                     85                     86                     87
                      A                      A                      A
 Frequencies --   1232.5709              1247.7891              1267.8165
 Red. masses --      2.0552                 2.8347                10.4369
 Frc consts  --      1.8396                 2.6004                 9.8840
 IR Inten    --      2.8596                59.9781                45.0197

                     88                     89                     90
                      A                      A                      A
 Frequencies --   1272.9315              1301.0570              1302.7449
 Red. masses --     10.5057                 2.4601                 2.6162
 Frc consts  --     10.0296                 2.4536                 2.6160
 IR Inten    --     85.3031                63.6138                98.1080

                     91                     92                     93
                      A                      A                      A
 Frequencies --   1316.6576              1319.2868              1324.2968
 Red. masses --      7.0908                 2.3417                11.7115
 Frc consts  --      7.2425                 2.4014                12.1014
 IR Inten    --    181.5955                20.9284               617.5520

                     94                     95                     96
                      A                      A                      A
 Frequencies --   1326.9623              1336.6261              1344.8844
 Red. masses --      9.7489                 2.0612                 2.2272
 Frc consts  --     10.1140                 2.1697                 2.3734
 IR Inten    --     47.2594                17.4780                 2.5776

                     97                     98                     99
                      A                      A                      A
 Frequencies --   1361.3145              1362.2175              1395.1074
 Red. masses --      2.0161                 1.7696                 4.9508
 Frc consts  --      2.2013                 1.9347                 5.6772
 IR Inten    --      5.6592                 6.2420               220.0548

                    100                    101                    102
                      A                      A                      A
 Frequencies --   1401.2516              1411.7985              1415.1007
 Red. masses --      2.3352                 1.4063                 1.7783
 Frc consts  --      2.7015                 1.6515                 2.0981
 IR Inten    --    160.2256                25.9512                55.7098

                    103                    104                    105
                      A                      A                      A
 Frequencies --   1469.7717              1476.6129              1509.4095
 Red. masses --      1.5857                 1.5725                 2.2891
 Frc consts  --      2.0182                 2.0200                 3.0728
 IR Inten    --    142.1341               156.4010                21.4283

                    106                    107                    108
                      A                      A                      A
 Frequencies --   1511.2449              1554.2575              1555.2242
 Red. masses --      2.2466                 2.3727                 2.3850
 Frc consts  --      3.0231                 3.3771                 3.3989
 IR Inten    --     51.6276                 1.5663                25.9805

                    109                    110                    111
                      A                      A                      A
 Frequencies --   1677.7511              1678.6875              1696.3596
 Red. masses --      6.1148                 6.1271                 6.0310
 Frc consts  --     10.1411                10.1728                10.2253
 IR Inten    --      1.0409                 1.9443                 2.2474

                    112                    113                    114
                      A                      A                      A
 Frequencies --   1696.8285              3112.2932              3118.9817
 Red. masses --      6.0322                 1.0853                 1.0851
 Frc consts  --     10.2330                 6.1940                 6.2195
 IR Inten    --      3.2272                 5.6388                 3.8941

                    115                    116                    117
                      A                      A                      A
 Frequencies --   3208.1394              3209.0788              3221.4655
 Red. masses --      1.0893                 1.0893                 1.0882
 Frc consts  --      6.6058                 6.6094                 6.6535
 IR Inten    --      6.2565                 7.5265                 0.8329

                    118                    119                    120
                      A                      A                      A
 Frequencies --   3230.4475              3232.9725              3238.2908
 Red. masses --      1.0867                 1.0894                 1.0905
 Frc consts  --      6.6816                 6.7086                 6.7378
 IR Inten    --      0.0540                 1.3011                 6.4789

                    121                    122                    123
                      A                      A                      A
 Frequencies --   3241.4718              3245.1893              3251.7307
 Red. masses --      1.0942                 1.0942                 1.0986
 Frc consts  --      6.7735                 6.7893                 6.8443
 IR Inten    --     12.4778                11.2075                16.5933

                    124                    125                    126
                      A                      A                      A
 Frequencies --   3253.3736              3507.5666              3543.7408
 Red. masses --      1.0987                 1.0756                 1.0763
 Frc consts  --      6.8518                 7.7966                 7.9639
 IR Inten    --     14.5131               159.3420               126.8860

 - Thermochemistry -
 -------------------
 Temperature   298.150 Kelvin.  Pressure   1.00000 Atm.
 Atom     1 has atomic number  6 and mass  12.00000

 Molecular mass:   476.02992 amu.
 Principal axes and moments of inertia in atomic units:
                           1         2         3
     Eigenvalues --  9868.20862********************
           X            0.99975  -0.02227  -0.00256
           Y            0.02226   0.99975  -0.00215
           Z            0.00261   0.00210   0.99999
 This molecule is an asymmetric top.
 Rotational symmetry number  1.
 Warning -- assumption of classical behavior for rotation
           may cause significant error
 Rotational temperatures (Kelvin)      0.00878     0.00600     0.00420
 Rotational constants (GHZ):           0.18288     0.12505     0.08757
 Zero-point vibrational energy     807874.8 (Joules/Mol)
                                  193.08671 (Kcal/Mol)
 Warning -- explicit consideration of  45 degrees of freedom as
           vibrations may cause significant error
 Vibrational temperatures:     18.69    38.20    44.29    56.59    70.66
          (Kelvin)             74.24    77.02   100.50   107.44   130.06
                              142.39   152.64   170.32   208.34   242.98
                              254.08   278.24   293.84   315.00   363.43
                              366.88   374.34   410.71   412.74   458.91
                              465.56   490.56   506.39   540.30   550.14
                              596.67   603.65   615.77   646.32   679.62
                              715.45   728.77   745.40   771.74   795.85
                              810.05   814.99   819.63   842.26   866.97
                              894.50   905.54   906.13   951.45   954.11
                              981.38  1040.31  1044.16  1106.68  1129.12
                             1139.17  1150.69  1201.28  1252.84  1265.66
                             1271.77  1340.52  1373.33  1387.33  1407.72
                             1428.67  1443.89  1447.20  1462.55  1466.34
                             1478.98  1481.18  1537.79  1539.56  1593.96
                             1605.57  1630.10  1647.92  1664.16  1682.19
                             1708.73  1709.33  1741.39  1743.62  1773.39
                             1795.29  1824.11  1831.46  1871.93  1874.36
                             1894.38  1898.16  1905.37  1909.20  1923.11
                             1934.99  1958.63  1959.93  2007.25  2016.09
                             2031.26  2036.01  2114.67  2124.52  2171.70
                             2174.34  2236.23  2237.62  2413.91  2415.26
                             2440.68  2441.36  4477.90  4487.52  4615.80
                             4617.15  4634.97  4647.89  4651.53  4659.18
                             4663.75  4669.10  4678.52  4680.88  5046.61
                             5098.65

 Zero-point correction=                           0.307703 (Hartree/Particle)
 Thermal correction to Energy=                    0.334839
 Thermal correction to Enthalpy=                  0.335783
 Thermal correction to Gibbs Free Energy=         0.247141
 Sum of electronic and zero-point Energies=          -2422.835124
 Sum of electronic and thermal Energies=             -2422.807989
 Sum of electronic and thermal Enthalpies=           -2422.807044
 Sum of electronic and thermal Free Energies=        -2422.895686

                     E (Thermal)             CV                S
                      KCal/Mol        Cal/Mol-Kelvin    Cal/Mol-Kelvin
 Total                  210.115            101.431            186.563
 Electronic               0.000              0.000              0.000
 Translational            0.889              2.981             44.369
 Rotational               0.889              2.981             36.327
 Vibrational            208.337             95.470            105.867
 Vibration     1          0.593              1.987              7.492
 Vibration     2          0.593              1.984              6.072
 Vibration     3          0.594              1.984              5.778
 Vibration     4          0.594              1.981              5.293
 Vibration     5          0.595              1.978              4.853
 Vibration     6          0.596              1.977              4.755
 Vibration     7          0.596              1.976              4.683
 Vibration     8          0.598              1.968              4.158
 Vibration     9          0.599              1.966              4.026
 Vibration    10          0.602              1.956              3.651
 Vibration    11          0.604              1.950              3.475
 Vibration    12          0.605              1.944              3.339
 Vibration    13          0.609              1.934              3.127
 Vibration    14          0.616              1.908              2.739
 Vibration    15          0.625              1.881              2.448
 Vibration    16          0.628              1.871              2.364
 Vibration    17          0.635              1.849              2.195
 Vibration    18          0.640              1.834              2.095
 Vibration    19          0.647              1.812              1.968
 Vibration    20          0.664              1.758              1.712
 Vibration    21          0.665              1.754              1.696
 Vibration    22          0.668              1.746              1.661
 Vibration    23          0.683              1.701              1.501
 Vibration    24          0.684              1.698              1.492
 Vibration    25          0.705              1.637              1.315
 Vibration    26          0.708              1.628              1.292
 Vibration    27          0.720              1.594              1.208
 Vibration    28          0.729              1.571              1.157
 Vibration    29          0.746              1.522              1.057
 Vibration    30          0.752              1.508              1.030
 Vibration    31          0.778              1.438              0.910
 Vibration    32          0.782              1.428              0.893
 Vibration    33          0.789              1.409              0.865
 Vibration    34          0.808              1.363              0.798
 Vibration    35          0.829              1.311              0.731
 Vibration    36          0.853              1.256              0.665
 Vibration    37          0.862              1.236              0.642
 Vibration    38          0.873              1.210              0.614
 Vibration    39          0.891              1.170              0.573
 Vibration    40          0.909              1.133              0.538
 Vibration    41          0.919              1.111              0.518
 Vibration    42          0.922              1.104              0.511
 Vibration    43          0.926              1.097              0.505
 Vibration    44          0.942              1.063              0.475
 Vibration    45          0.961              1.026              0.445

 Optimization completed.
    -- Stationary point found.
 Normal termination of Gaussian 16 at Mon Dec 11 14:19:08 2023.
