 Gaussian 16, Revision C.01,
 Gaussian 16:  ES64L-G16RevC.01  3-Jul-2019

 ----------------------------------------------------------------------
 # m062x 6-31g(d) scrf=(iefpcm,solvent=benzene) opt=(maxcycles=50,maxst
 ep=10) freq=noraman
 ----------------------------------------------------------------------

 ----------
 Structure1
 ----------
 Symbolic Z-matrix:
 Charge =  0 Multiplicity = 1

 SCF Done:  E(RM062X) =  -1301.54838484     A.U. after   14 cycles
 SCF Done:  E(RM062X) =  -1301.55606046     A.U. after   12 cycles
 SCF Done:  E(RM062X) =  -1301.56019565     A.U. after   12 cycles
 SCF Done:  E(RM062X) =  -1301.55203569     A.U. after   14 cycles
 SCF Done:  E(RM062X) =  -1301.55623111     A.U. after   13 cycles
 SCF Done:  E(RM062X) =  -1301.56147410     A.U. after   10 cycles
 SCF Done:  E(RM062X) =  -1301.56107571     A.U. after   12 cycles
 SCF Done:  E(RM062X) =  -1301.56207261     A.U. after   11 cycles
 SCF Done:  E(RM062X) =  -1301.56226573     A.U. after   11 cycles
 SCF Done:  E(RM062X) =  -1301.56234473     A.U. after   11 cycles
 SCF Done:  E(RM062X) =  -1301.56243634     A.U. after   10 cycles
 SCF Done:  E(RM062X) =  -1301.56250025     A.U. after   10 cycles
 SCF Done:  E(RM062X) =  -1301.56254198     A.U. after   10 cycles
 SCF Done:  E(RM062X) =  -1301.56255020     A.U. after    9 cycles
 SCF Done:  E(RM062X) =  -1301.56255301     A.U. after    8 cycles
 SCF Done:  E(RM062X) =  -1301.56255453     A.U. after    9 cycles
 SCF Done:  E(RM062X) =  -1301.56255507     A.U. after    7 cycles
 SCF Done:  E(RM062X) =  -1301.56255546     A.U. after    7 cycles
 SCF Done:  E(RM062X) =  -1301.56255548     A.U. after    6 cycles
 Optimization completed.
    -- Stationary point found.
 Normal termination of Gaussian 16 at Mon Dec 11 14:17:05 2023.

 --------------------------------------------------------------------
 #N Geom=AllCheck Guess=TCheck SCRF=Check GenChk RM062X/6-31G(d) Freq
 --------------------------------------------------------------------

 Structure from the checkpoint file:  "sasai_OPLS3e_1_opt_freq.chk"
 ----------
 Structure1
 ----------
 Charge =  0 Multiplicity = 1

                         Standard orientation:
 ---------------------------------------------------------------------
 Center     Atomic      Atomic             Coordinates (Angstroms)
 Number     Number       Type             X           Y           Z
 ---------------------------------------------------------------------
      1          6           0        2.238143    0.136523   -0.408151
      2          6           0        4.678216   -1.274875   -0.498292
      3          6           0        4.621611    0.020793   -0.928081
      4          6           0        3.392389    0.727233   -0.889610
      5          1           0        5.616397   -1.821921   -0.537819
      6          1           0        5.494178    0.536031   -1.315141
      7          8           0        3.428552    2.001085   -1.352348
      8          6           0        2.293188   -1.218436    0.063819
      9          6           0        3.522490   -1.934503    0.002257
     10          6           0        3.566047   -3.282989    0.440226
     11          6           0        2.439921   -3.906206    0.916489
     12          6           0        1.219500   -3.194521    0.988783
     13          6           0        1.148486   -1.885847    0.580925
     14          1           0        4.513106   -3.814036    0.386633
     15          1           0        2.483392   -4.940609    1.242257
     16          1           0        0.320439   -3.672834    1.364628
     17          1           0        0.207252   -1.351668    0.668164
     18          6           0       -1.567191    2.135237   -0.388289
     19          6           0        0.950900    0.886831   -0.409150
     20          6           0       -0.077214    0.451867   -1.229300
     21          6           0       -1.365919    1.052899   -1.203943
     22          1           0       -2.555774    2.587478   -0.351178
     23          8           0        0.069656   -0.603721   -2.071649
     24          6           0       -2.505137    0.490467   -2.028467
     25          6           0       -0.537706    2.658994    0.432998
     26          6           0        0.733051    2.016292    0.442466
     27          6           0        1.741726    2.524038    1.307780
     28          6           0        1.500609    3.620042    2.098086
     29          6           0        0.241971    4.266667    2.075226
     30          6           0       -0.754332    3.789226    1.263292
     31          1           0        2.705504    2.025513    1.345508
     32          1           0        2.282509    3.992480    2.752648
     33          1           0        0.068235    5.132420    2.706074
     34          1           0       -1.730429    4.266878    1.242814
     35          1           0        2.539270    2.387907   -1.285193
     36          1           0        0.957361   -0.983109   -1.953219
     37          7           0       -3.688057    0.247096   -1.204983
     38          1           0       -2.800936    1.229805   -2.780924
     39          1           0       -2.182532   -0.405547   -2.576763
     40          6           0       -4.897476    0.114357   -2.012666
     41          6           0       -3.225244   -2.506388    1.878515
     42          6           0       -4.368063   -1.708142    1.858422
     43          6           0       -4.527115   -0.795151    0.828745
     44          6           0       -3.551587   -0.707060   -0.172918
     45          6           0       -2.450890   -1.570384   -0.061693
     46          7           0       -2.282249   -2.439071    0.940701
     47          1           0       -3.063784   -3.224756    2.678341
     48          1           0       -5.386709   -0.131590    0.805693
     49          1           0       -1.662556   -1.566564   -0.809987
     50          1           0       -5.042248    1.028775   -2.594312
     51          1           0       -5.768810   -0.022471   -1.371400
     52          1           0       -4.841165   -0.738787   -2.706803
     53          1           0       -5.108451   -1.790261    2.647102
 ---------------------------------------------------------------------

 SCF Done:  E(RM062X) =  -1301.56255548     A.U. after    1 cycles

 The electronic state is 1-A.
 Alpha  occ. eigenvalues --  -19.67566 -19.67088 -14.77398 -14.75719 -10.62152
 Alpha  occ. eigenvalues --  -10.61939 -10.59086 -10.58242 -10.57482 -10.57427
 Alpha  occ. eigenvalues --  -10.57422 -10.56794 -10.56565 -10.56344 -10.56298
 Alpha  occ. eigenvalues --  -10.56196 -10.56114 -10.56002 -10.55992 -10.55795
 Alpha  occ. eigenvalues --  -10.55761 -10.55586 -10.55406 -10.55391 -10.55310
 Alpha  occ. eigenvalues --  -10.55131 -10.55080 -10.55036 -10.54697 -10.54579
 Alpha  occ. eigenvalues --  -10.54393  -1.19146  -1.18638  -1.06429  -1.03631
 Alpha  occ. eigenvalues --   -0.98828  -0.97700  -0.92896  -0.92105  -0.90165
 Alpha  occ. eigenvalues --   -0.89295  -0.85909  -0.85440  -0.85035  -0.83364
 Alpha  occ. eigenvalues --   -0.82236  -0.80747  -0.78964  -0.75629  -0.73750
 Alpha  occ. eigenvalues --   -0.71570  -0.70978  -0.69596  -0.69159  -0.68777
 Alpha  occ. eigenvalues --   -0.66925  -0.65945  -0.62832  -0.62222  -0.60735
 Alpha  occ. eigenvalues --   -0.59847  -0.59235  -0.58018  -0.56824  -0.56209
 Alpha  occ. eigenvalues --   -0.55367  -0.54039  -0.52817  -0.52379  -0.51846
 Alpha  occ. eigenvalues --   -0.51616  -0.51405  -0.50887  -0.50229  -0.49966
 Alpha  occ. eigenvalues --   -0.49556  -0.48519  -0.48031  -0.47349  -0.46874
 Alpha  occ. eigenvalues --   -0.46691  -0.46268  -0.45875  -0.45683  -0.45542
 Alpha  occ. eigenvalues --   -0.45207  -0.44966  -0.44409  -0.43715  -0.42538
 Alpha  occ. eigenvalues --   -0.41982  -0.40330  -0.39836  -0.39543  -0.37663
 Alpha  occ. eigenvalues --   -0.37412  -0.37164  -0.35820  -0.34907  -0.33144
 Alpha  occ. eigenvalues --   -0.32741  -0.31576  -0.28319  -0.28178  -0.26572
 Alpha  occ. eigenvalues --   -0.26153  -0.25029
 Alpha virt. eigenvalues --   -0.01750  -0.00330   0.01678   0.02359   0.02860
 Alpha virt. eigenvalues --    0.03535   0.05868   0.07321   0.12740   0.13328
 Alpha virt. eigenvalues --    0.14163   0.14530   0.14918   0.15076   0.15683

 Mulliken charges:
               1
     1  C   -0.105131
     2  C   -0.203108
     3  C   -0.189143
     4  C    0.294880
     5  H    0.179324
     6  H    0.185912
     7  O   -0.675296
     8  C    0.028541
     9  C    0.077029
    10  C   -0.206317
    11  C   -0.180076
    12  C   -0.172940
    13  C   -0.204331
    14  H    0.170782
    15  H    0.171021
    16  H    0.185707
    17  H    0.181585
    18  C   -0.244081
    19  C   -0.081153
    20  C    0.248132
    21  C    0.081160
    22  H    0.177924
    23  O   -0.680206
    24  C   -0.224654
    25  C    0.088139
    26  C    0.040838
    27  C   -0.211315
    28  C   -0.173862
    29  C   -0.181760
    30  C   -0.202820
    31  H    0.185227
    32  H    0.174965
    33  H    0.172714
    34  H    0.173161
    35  H    0.447745
    36  H    0.456000
    37  N   -0.520059
    38  H    0.187802
    39  H    0.188657
    40  C   -0.337698
    41  C    0.011913
    42  C   -0.187383
    43  C   -0.163712
    44  C    0.276753
    45  C   -0.019840
    46  N   -0.462747
    47  H    0.172784
    48  H    0.182429
    49  H    0.187086
    50  H    0.177482
    51  H    0.180195
    52  H    0.161375
    53  H    0.180371
 Sum of Mulliken charges =  -0.00000

 Dipole moment (field-independent basis, Debye):
    X=             -2.5952    Y=              1.0982    Z=             -0.2921  Tot=              2.8331
 Quadrupole moment (field-independent basis, Debye-Ang):
   XX=           -150.8626   YY=           -171.3407   ZZ=           -174.2162
   XY=             -9.8120   XZ=              1.7701   YZ=              0.9393

  Exact polarizability:     395.056     -21.154     378.607      -5.311      -5.423     253.559
 Approx polarizability:     433.190     -20.882     426.618      -8.234      -5.755     312.824

                      1                      2                      3
                      A                      A                      A
 Frequencies --     29.9151                35.5769                47.1366
 Red. masses --      5.2306                 5.8880                 5.5158
 Frc consts  --      0.0028                 0.0044                 0.0072
 IR Inten    --      0.3838                 0.0759                 1.1077

                      4                      5                      6
                      A                      A                      A
 Frequencies --     56.1490                65.3800                75.0657
 Red. masses --      4.6357                 4.9162                 3.9098
 Frc consts  --      0.0086                 0.0124                 0.0130
 IR Inten    --      0.4427                 1.9764                 1.8020

                      7                      8                      9
                      A                      A                      A
 Frequencies --     85.3584               103.2146               118.9816
 Red. masses --      4.8450                 4.4357                 5.6633
 Frc consts  --      0.0208                 0.0278                 0.0472
 IR Inten    --      0.7784                 1.2254                 0.3674

                     10                     11                     12
                      A                      A                      A
 Frequencies --    136.8766               150.6590               164.5055
 Red. masses --      5.6530                 3.3633                 4.0268
 Frc consts  --      0.0624                 0.0450                 0.0642
 IR Inten    --      0.1732                 2.2284                 0.2903

                     13                     14                     15
                      A                      A                      A
 Frequencies --    181.3765               187.6201               204.8271
 Red. masses --      2.1683                 3.9404                 2.1725
 Frc consts  --      0.0420                 0.0817                 0.0537
 IR Inten    --      0.0443                 0.0372                 0.4865

                     16                     17                     18
                      A                      A                      A
 Frequencies --    234.1770               247.7132               291.6476
 Red. masses --      4.3709                 4.3558                 3.5746
 Frc consts  --      0.1412                 0.1575                 0.1791
 IR Inten    --      2.3276                 5.0306                 1.4530

                     19                     20                     21
                      A                      A                      A
 Frequencies --    300.3049               314.7927               336.4340
 Red. masses --      3.5453                 3.8162                 4.5857
 Frc consts  --      0.1884                 0.2228                 0.3058
 IR Inten    --      2.9617                 1.3930                 1.8324

                     22                     23                     24
                      A                      A                      A
 Frequencies --    354.5736               357.5286               372.6787
 Red. masses --      3.5873                 3.2657                 2.5312
 Frc consts  --      0.2657                 0.2459                 0.2071
 IR Inten    --      6.7418                 0.8079                18.1314

                     25                     26                     27
                      A                      A                      A
 Frequencies --    387.0065               411.5429               423.7097
 Red. masses --      4.7951                 1.4808                 1.4967
 Frc consts  --      0.4231                 0.1478                 0.1583
 IR Inten    --      0.9446                42.7961               103.7541

                     28                     29                     30
                      A                      A                      A
 Frequencies --    430.2376               439.3424               446.3008
 Red. masses --      3.5291                 3.7783                 5.5283
 Frc consts  --      0.3849                 0.4297                 0.6488
 IR Inten    --      4.0010                14.1315                11.2211

                     31                     32                     33
                      A                      A                      A
 Frequencies --    447.4780               458.4231               468.4871
 Red. masses --      3.6866                 3.0115                 4.1949
 Frc consts  --      0.4349                 0.3729                 0.5425
 IR Inten    --     20.9828                42.6167                 3.3916

                     34                     35                     36
                      A                      A                      A
 Frequencies --    505.0920               522.1661               532.6253
 Red. masses --      3.8345                 5.1150                 6.0782
 Frc consts  --      0.5764                 0.8217                 1.0159
 IR Inten    --      4.6826                17.8796                 4.3122

                     37                     38                     39
                      A                      A                      A
 Frequencies --    544.6886               549.4247               552.2064
 Red. masses --      3.7980                 3.7439                 3.9772
 Frc consts  --      0.6639                 0.6659                 0.7146
 IR Inten    --      3.3263                 2.4159                 1.1360

                     40                     41                     42
                      A                      A                      A
 Frequencies --    557.9338               586.7377               604.6433
 Red. masses --      4.0509                 4.4003                 4.7637
 Frc consts  --      0.7430                 0.8925                 1.0261
 IR Inten    --      2.2138                 9.9694                 7.5144

                     43                     44                     45
                      A                      A                      A
 Frequencies --    634.1832               636.3228               642.0364
 Red. masses --      6.5743                 6.7364                 4.8505
 Frc consts  --      1.5579                 1.6071                 1.1780
 IR Inten    --      7.6285                 8.9626                 2.8702

                     46                     47                     48
                      A                      A                      A
 Frequencies --    677.9090               702.8875               704.0312
 Red. masses --      5.3324                 4.1300                 6.1909
 Frc consts  --      1.4438                 1.2022                 1.8080
 IR Inten    --      7.4352                 1.5361                14.4963

                     49                     50                     51
                      A                      A                      A
 Frequencies --    733.2531               740.4430               743.0364
 Red. masses --      6.4569                 4.1521                 2.6369
 Frc consts  --      2.0454                 1.3412                 0.8578
 IR Inten    --      4.3740                 3.9593                30.4098

                     52                     53                     54
                      A                      A                      A
 Frequencies --    773.3296               778.0327               782.4723
 Red. masses --      1.9284                 3.0027                 1.6248
 Frc consts  --      0.6795                 1.0709                 0.5861
 IR Inten    --     10.3041                12.3607                32.2248

                     55                     56                     57
                      A                      A                      A
 Frequencies --    786.4678               795.4431               804.7159
 Red. masses --      2.2435                 5.3545                 5.5414
 Frc consts  --      0.8176                 1.9961                 2.1142
 IR Inten    --     13.3429                 0.9423                 0.2043

                     58                     59                     60
                      A                      A                      A
 Frequencies --    836.2989               850.3860               873.9215
 Red. masses --      1.6991                 1.4997                 4.6475
 Frc consts  --      0.7002                 0.6390                 2.0913
 IR Inten    --     26.1761                51.8286                 1.6611

                     61                     62                     63
                      A                      A                      A
 Frequencies --    883.4396               903.0778               912.1950
 Red. masses --      1.4064                 1.4999                 2.7388
 Frc consts  --      0.6467                 0.7207                 1.3427
 IR Inten    --      1.3584                 3.6023                10.5293

                     64                     65                     66
                      A                      A                      A
 Frequencies --    936.9199               941.7609               956.9464
 Red. masses --      1.8265                 4.3844                 1.3110
 Frc consts  --      0.9447                 2.2911                 0.7073
 IR Inten    --     24.0853                 4.6823                 2.1200

                     67                     68                     69
                      A                      A                      A
 Frequencies --    981.1571               983.7744               984.0686
 Red. masses --      1.3501                 1.3377                 1.3216
 Frc consts  --      0.7657                 0.7628                 0.7541
 IR Inten    --     11.7459                 2.1101                 3.4368

                     70                     71                     72
                      A                      A                      A
 Frequencies --    997.2444               998.9097              1003.8096
 Red. masses --      1.4972                 1.9926                 4.5669
 Frc consts  --      0.8773                 1.1714                 2.7113
 IR Inten    --      1.5056                11.1475                 4.5282

                     73                     74                     75
                      A                      A                      A
 Frequencies --   1011.6687              1014.3147              1025.7993
 Red. masses --      1.3936                 1.2905                 2.7231
 Frc consts  --      0.8404                 0.7823                 1.6883
 IR Inten    --      0.8297                 0.3271                18.2790

                     76                     77                     78
                      A                      A                      A
 Frequencies --   1031.2282              1038.1294              1067.2164
 Red. masses --      1.3271                 2.7938                 2.2910
 Frc consts  --      0.8315                 1.7740                 1.5374
 IR Inten    --      0.3871                 2.2429                11.4617

                     79                     80                     81
                      A                      A                      A
 Frequencies --   1069.6068              1078.7575              1090.9708
 Red. masses --      2.0326                 3.1945                 2.2387
 Frc consts  --      1.3701                 2.1903                 1.5699
 IR Inten    --      0.6867                 5.3136                 4.4839

                     82                     83                     84
                      A                      A                      A
 Frequencies --   1138.1224              1152.5155              1154.4744
 Red. masses --      2.3592                 1.4499                 1.4452
 Frc consts  --      1.8005                 1.1347                 1.1349
 IR Inten    --      9.7680                39.2967                15.1496

                     85                     86                     87
                      A                      A                      A
 Frequencies --   1162.3604              1167.0733              1174.4166
 Red. masses --      1.5290                 1.4681                 1.2848
 Frc consts  --      1.2171                 1.1781                 1.0440
 IR Inten    --     41.7756                22.4666                11.7743

                     88                     89                     90
                      A                      A                      A
 Frequencies --   1181.4271              1186.1058              1207.5760
 Red. masses --      1.2777                 1.2119                 1.3783
 Frc consts  --      1.0508                 1.0045                 1.1842
 IR Inten    --     23.0864                 8.3242                36.9878

                     91                     92                     93
                      A                      A                      A
 Frequencies --   1226.1593              1235.6263              1239.5924
 Red. masses --      2.6338                 1.6749                 1.9397
 Frc consts  --      2.3330                 1.5067                 1.7560
 IR Inten    --     62.3422                97.4354                24.9495

                     94                     95                     96
                      A                      A                      A
 Frequencies --   1245.0584              1250.4201              1267.5795
 Red. masses --      1.5633                 1.8065                 1.7563
 Frc consts  --      1.4278                 1.6642                 1.6626
 IR Inten    --     74.8073                55.5460                86.0035

                     97                     98                     99
                      A                      A                      A
 Frequencies --   1283.2421              1292.6361              1307.7095
 Red. masses --      1.7185                 1.9366                 3.0862
 Frc consts  --      1.6673                 1.9065                 3.1096
 IR Inten    --     38.9085                 2.6416                24.8881

                    100                    101                    102
                      A                      A                      A
 Frequencies --   1320.3100              1331.2264              1354.9078
 Red. masses --      2.2543                 2.0448                 1.8754
 Frc consts  --      2.3153                 2.1350                 2.0285
 IR Inten    --     38.3540                20.7648                22.8075

                    103                    104                    105
                      A                      A                      A
 Frequencies --   1361.0756              1385.8186              1398.9721
 Red. masses --      2.3118                 1.3686                 2.0182
 Frc consts  --      2.5233                 1.5486                 2.3272
 IR Inten    --    119.8046                 0.4940                18.0373

                    106                    107                    108
                      A                      A                      A
 Frequencies --   1411.1704              1421.6824              1427.8396
 Red. masses --      3.3445                 3.8197                 1.8048
 Frc consts  --      3.9241                 4.5487                 2.1679
 IR Inten    --     10.0577                95.6597                49.0634

                    109                    110                    111
                      A                      A                      A
 Frequencies --   1443.1487              1447.5509              1455.8999
 Red. masses --      5.1725                 4.7533                 3.1100
 Frc consts  --      6.3471                 5.8683                 3.8839
 IR Inten    --     17.9310                78.1933                18.6790

                    112                    113                    114
                      A                      A                      A
 Frequencies --   1483.5282              1488.7796              1495.6714
 Red. masses --      1.3099                 2.1414                 2.6913
 Frc consts  --      1.6985                 2.7965                 3.5472
 IR Inten    --     22.8789                31.2665                26.0162

                    115                    116                    117
                      A                      A                      A
 Frequencies --   1509.8065              1513.3326              1517.3182
 Red. masses --      3.1557                 3.2131                 1.0580
 Frc consts  --      4.2382                 4.3356                 1.4351
 IR Inten    --     69.4634                15.1314                18.5135

                    118                    119                    120
                      A                      A                      A
 Frequencies --   1529.4670              1530.3820              1544.8612
 Red. masses --      1.2496                 2.6209                 1.1630
 Frc consts  --      1.7223                 3.6166                 1.6353
 IR Inten    --     18.6953                36.5978                 0.6140

                    121                    122                    123
                      A                      A                      A
 Frequencies --   1557.5642              1581.1509              1590.8201
 Red. masses --      1.9684                 4.1232                 4.4225
 Frc consts  --      2.8135                 6.0734                 6.5942
 IR Inten    --    100.9018                63.2298                22.9287

                    124                    125                    126
                      A                      A                      A
 Frequencies --   1660.9881              1668.9974              1676.9571
 Red. masses --      5.6538                 7.6782                 7.5163
 Frc consts  --      9.1901                12.6015                12.4537
 IR Inten    --      8.4494                14.0947                 5.5530

                    127                    128                    129
                      A                      A                      A
 Frequencies --   1682.5237              1690.8382              1696.9354
 Red. masses --      6.2883                 6.2400                 6.2860
 Frc consts  --     10.4883                10.5108                10.6649
 IR Inten    --     24.7812                76.4802                22.4676

                    130                    131                    132
                      A                      A                      A
 Frequencies --   1713.4454              1717.9238              3031.1161
 Red. masses --      6.5901                 6.8879                 1.0537
 Frc consts  --     11.3994                11.9770                 5.7038
 IR Inten    --     67.3777                34.3190                97.4501

                    133                    134                    135
                      A                      A                      A
 Frequencies --   3068.0254              3113.4922              3138.0999
 Red. masses --      1.0632                 1.0998                 1.0842
 Frc consts  --      5.8965                 6.2816                 6.2907
 IR Inten    --     37.8675                17.3500                31.0716

                    136                    137                    138
                      A                      A                      A
 Frequencies --   3193.4724              3213.1986              3214.6152
 Red. masses --      1.1008                 1.0886                 1.0905
 Frc consts  --      6.6143                 6.6221                 6.6397
 IR Inten    --     17.9973                 5.9385                 0.7838

                    139                    140                    141
                      A                      A                      A
 Frequencies --   3214.8430              3216.8467              3220.6649
 Red. masses --      1.0891                 1.0885                 1.0897
 Frc consts  --      6.6318                 6.6364                 6.6596
 IR Inten    --     16.4493                 7.8783                 9.7460

                    142                    143                    144
                      A                      A                      A
 Frequencies --   3227.7681              3228.3469              3233.3016
 Red. masses --      1.0883                 1.0901                 1.0894
 Frc consts  --      6.6806                 6.6937                 6.7103
 IR Inten    --      5.9518                13.5849                10.7584

                    145                    146                    147
                      A                      A                      A
 Frequencies --   3235.9754              3240.0461              3241.9296
 Red. masses --      1.0908                 1.0934                 1.0920
 Frc consts  --      6.7299                 6.7627                 6.7620
 IR Inten    --      2.8130                17.3227                12.7310

                    148                    149                    150
                      A                      A                      A
 Frequencies --   3247.9357              3249.4817              3249.9579
 Red. masses --      1.0979                 1.0974                 1.0972
 Frc consts  --      6.8238                 6.8272                 6.8282
 IR Inten    --     22.1340                18.2811                 6.2676

                    151                    152                    153
                      A                      A                      A
 Frequencies --   3251.4438              3752.9677              3760.8326
 Red. masses --      1.0949                 1.0649                 1.0652
 Frc consts  --      6.8200                 8.8374                 8.8770
 IR Inten    --      7.4471               102.4747               221.3738

 - Thermochemistry -
 -------------------
 Temperature   298.150 Kelvin.  Pressure   1.00000 Atm.
 Atom     1 has atomic number  6 and mass  12.00000

 Molecular mass:   406.16813 amu.
 Principal axes and moments of inertia in atomic units:
                           1         2         3
     Eigenvalues --  8961.87062********************
           X            0.99992  -0.00996   0.00822
           Y            0.00994   0.99995   0.00182
           Z           -0.00823  -0.00174   0.99996
 This molecule is an asymmetric top.
 Rotational symmetry number  1.
 Warning -- assumption of classical behavior for rotation
           may cause significant error
 Rotational temperatures (Kelvin)      0.00966     0.00624     0.00474
 Rotational constants (GHZ):           0.20138     0.12997     0.09868
 Zero-point vibrational energy    1134981.3 (Joules/Mol)
                                  271.26704 (Kcal/Mol)
 Warning -- explicit consideration of  42 degrees of freedom as
           vibrations may cause significant error
 Vibrational temperatures:     43.04    51.19    67.82    80.79    94.07
          (Kelvin)            108.00   122.81   148.50   171.19   196.93
                              216.76   236.69   260.96   269.94   294.70
                              336.93   356.40   419.62   432.07   452.92
                              484.05   510.15   514.40   536.20   556.82
                              592.12   609.62   619.02   632.12   642.13
                              643.82   659.57   674.05   726.71   751.28
                              766.33   783.69   790.50   794.50   802.74
                              844.18   869.95   912.45   915.53   923.75
                              975.36  1011.30  1012.94  1054.99  1065.33
                             1069.06  1112.65  1119.42  1125.80  1131.55
                             1144.47  1157.81  1203.25  1223.52  1257.38
                             1271.07  1299.33  1312.45  1348.02  1354.98
                             1376.83  1411.67  1415.43  1415.86  1434.81
                             1437.21  1444.26  1455.57  1459.37  1475.90
                             1483.71  1493.64  1535.49  1538.93  1552.09
                             1569.66  1637.50  1658.21  1661.03  1672.38
                             1679.16  1689.72  1699.81  1706.54  1737.43
                             1764.17  1777.79  1783.50  1791.36  1799.08
                             1823.76  1846.30  1859.82  1881.50  1899.63
                             1915.34  1949.41  1958.28  1993.88  2012.81
                             2030.36  2045.48  2054.34  2076.37  2082.70
                             2094.72  2134.47  2142.02  2151.94  2172.27
                             2177.35  2183.08  2200.56  2201.88  2222.71
                             2240.99  2274.92  2288.84  2389.79  2401.32
                             2412.77  2420.78  2432.74  2441.51  2465.27
                             2471.71  4361.10  4414.20  4479.62  4515.03
                             4594.69  4623.08  4625.11  4625.44  4628.32
                             4633.82  4644.04  4644.87  4652.00  4655.85
                             4661.70  4664.41  4673.06  4675.28  4675.96
                             4678.10  5399.68  5411.00

 Zero-point correction=                           0.432292 (Hartree/Particle)
 Thermal correction to Energy=                    0.456847
 Thermal correction to Enthalpy=                  0.457791
 Thermal correction to Gibbs Free Energy=         0.378516
 Sum of electronic and zero-point Energies=          -1301.130264
 Sum of electronic and thermal Energies=             -1301.105709
 Sum of electronic and thermal Enthalpies=           -1301.104765
 Sum of electronic and thermal Free Energies=        -1301.184040

                     E (Thermal)             CV                S
                      KCal/Mol        Cal/Mol-Kelvin    Cal/Mol-Kelvin
 Total                  286.676            100.006            166.849
 Electronic               0.000              0.000              0.000
 Translational            0.889              2.981             43.896
 Rotational               0.889              2.981             36.074
 Vibrational            284.898             94.045             86.879
 Vibration     1          0.594              1.984              5.835
 Vibration     2          0.594              1.982              5.491
 Vibration     3          0.595              1.979              4.934
 Vibration     4          0.596              1.975              4.588
 Vibration     5          0.597              1.971              4.288
 Vibration     6          0.599              1.966              4.016
 Vibration     7          0.601              1.959              3.764
 Vibration     8          0.605              1.947              3.393
 Vibration     9          0.609              1.933              3.117
 Vibration    10          0.614              1.917              2.847
 Vibration    11          0.618              1.902              2.664
 Vibration    12          0.623              1.886              2.497
 Vibration    13          0.630              1.865              2.314
 Vibration    14          0.632              1.857              2.251
 Vibration    15          0.640              1.833              2.089
 Vibration    16          0.654              1.789              1.847
 Vibration    17          0.661              1.767              1.747
 Vibration    18          0.687              1.689              1.464
 Vibration    19          0.693              1.673              1.415
 Vibration    20          0.702              1.645              1.337
 Vibration    21          0.717              1.603              1.229
 Vibration    22          0.730              1.566              1.146
 Vibration    23          0.733              1.560              1.133
 Vibration    24          0.744              1.528              1.069
 Vibration    25          0.755              1.498              1.012
 Vibration    26          0.776              1.445              0.921
 Vibration    27          0.786              1.419              0.879
 Vibration    28          0.791              1.404              0.858
 Vibration    29          0.799              1.384              0.829
 Vibration    30          0.806              1.369              0.807
 Vibration    31          0.807              1.366              0.803
 Vibration    32          0.816              1.342              0.771
 Vibration    33          0.826              1.320              0.742
 Vibration    34          0.860              1.239              0.646
 Vibration    35          0.877              1.201              0.605
 Vibration    36          0.888              1.178              0.581
 Vibration    37          0.900              1.151              0.555
 Vibration    38          0.905              1.141              0.545
 Vibration    39          0.908              1.135              0.540
 Vibration    40          0.913              1.122              0.528
 Vibration    41          0.944              1.060              0.473
 Vibration    42          0.963              1.022              0.442

 Optimization completed.
    -- Stationary point found.
 Normal termination of Gaussian 16 at Mon Dec 11 14:40:34 2023.
