 Gaussian 16, Revision C.01,
 Gaussian 16:  ES64L-G16RevC.01  3-Jul-2019

 ----------------------------------------------------------------------
 # wb97xd def2svp geom=allchk scrf=(iefpcm,solvent=toluene) opt=(readfc
 ,ts,noeigen,maxcycles=50,maxstep=10)
 ----------------------------------------------------------------------

 Structure from the checkpoint file:  "cyclic-1_1_opt_sqm_re.chk"
 -------------------------
 cyclic-1_1_opt_sqm_re.out
 -------------------------
 Charge =  0 Multiplicity = 1

 SCF Done:  E(RwB97XD) =  -719.240520387     A.U. after   15 cycles
 SCF Done:  E(RwB97XD) =  -719.240350922     A.U. after   15 cycles
 SCF Done:  E(RwB97XD) =  -719.240558113     A.U. after   15 cycles
 SCF Done:  E(RwB97XD) =  -719.240497442     A.U. after   12 cycles
 SCF Done:  E(RwB97XD) =  -719.240258515     A.U. after   13 cycles
 SCF Done:  E(RwB97XD) =  -719.240526720     A.U. after   13 cycles
 SCF Done:  E(RwB97XD) =  -719.240488424     A.U. after   13 cycles
 SCF Done:  E(RwB97XD) =  -719.240550263     A.U. after   13 cycles
 SCF Done:  E(RwB97XD) =  -719.240515238     A.U. after   12 cycles
 SCF Done:  E(RwB97XD) =  -719.240543014     A.U. after   12 cycles
 SCF Done:  E(RwB97XD) =  -719.240533733     A.U. after   11 cycles
 SCF Done:  E(RwB97XD) =  -719.240536889     A.U. after   10 cycles
 SCF Done:  E(RwB97XD) =  -719.240534125     A.U. after   10 cycles
 SCF Done:  E(RwB97XD) =  -719.240534061     A.U. after    8 cycles
 SCF Done:  E(RwB97XD) =  -719.240535038     A.U. after   10 cycles
 SCF Done:  E(RwB97XD) =  -719.240521199     A.U. after   12 cycles
 SCF Done:  E(RwB97XD) =  -719.240535448     A.U. after   12 cycles
 SCF Done:  E(RwB97XD) =  -719.240532887     A.U. after   10 cycles
 SCF Done:  E(RwB97XD) =  -719.240534191     A.U. after   10 cycles
 SCF Done:  E(RwB97XD) =  -719.240534518     A.U. after    8 cycles
 Optimization completed.
    -- Stationary point found.

                         Standard orientation:
 ---------------------------------------------------------------------
 Center     Atomic      Atomic             Coordinates (Angstroms)
 Number     Number       Type             X           Y           Z
 ---------------------------------------------------------------------
      1          6           0        1.426792    0.737197    0.032408
      2          6           0       -1.070498   -1.421748    1.959753
      3          6           0        2.294077   -1.095067   -0.800051
      4          6           0       -2.069207   -0.661191    1.509192
      5          7           0        1.149738   -0.409200   -0.564176
      6          1           0       -0.903942   -1.557368    3.030106
      7          1           0       -0.396367   -1.944842    1.276324
      8          1           0        2.314202   -2.063603   -1.285268
      9          1           0       -2.764974   -0.157924    2.183417
     10          8           0        2.730043    0.861283    0.210053
     11          6           0        3.381488   -0.317211   -0.317528
     12          8           0        4.576182   -0.424867   -0.263988
     13          6           0       -2.308071   -0.473398    0.058622
     14          8           0       -1.518941   -0.774421   -0.822955
     15          8           0       -3.488832    0.062023   -0.175302
     16          6           0       -3.886904    0.350112   -1.514601
     17          1           0       -4.817312   -0.196378   -1.712121
     18          1           0       -3.108804    0.048776   -2.224730
     19          1           0       -4.070586    1.429538   -1.583071
     20          6           0        0.476505    1.702148    0.434943
     21          7           0       -0.331849    2.470237    0.753236
     22          1           0        0.169855   -0.702653   -0.766989
 ---------------------------------------------------------------------

 The electronic state is 1-A.
 Alpha  occ. eigenvalues --  -19.34376 -19.33290 -19.28142 -19.22779 -14.55629
 Alpha  occ. eigenvalues --  -14.47840 -10.46540 -10.44145 -10.42495 -10.37474
 Alpha  occ. eigenvalues --  -10.36809 -10.34474 -10.34191 -10.33617  -1.25495
 Alpha  occ. eigenvalues --   -1.23642  -1.14267  -1.12552  -1.08772  -1.02659
 Alpha  occ. eigenvalues --   -0.91444  -0.89546  -0.85050  -0.78489  -0.74545
 Alpha  occ. eigenvalues --   -0.73370  -0.72230  -0.66978  -0.63743  -0.63062
 Alpha  occ. eigenvalues --   -0.61213  -0.60271  -0.59843  -0.56965  -0.55639
 Alpha  occ. eigenvalues --   -0.52886  -0.52328  -0.51706  -0.50540  -0.49456
 Alpha  occ. eigenvalues --   -0.48817  -0.48109  -0.46729  -0.46067  -0.45846
 Alpha  occ. eigenvalues --   -0.44169  -0.41615  -0.40745  -0.39034  -0.36762
 Alpha  occ. eigenvalues --   -0.28376
 Alpha virt. eigenvalues --   -0.01047  -0.00226   0.05958   0.12846   0.13921
 Alpha virt. eigenvalues --    0.14356   0.15706   0.16201   0.17953   0.18626
 Alpha virt. eigenvalues --    0.19004   0.19889   0.20691   0.21401   0.21811

 Mulliken charges:
               1
     1  C    0.029075
     2  C   -0.031973
     3  C   -0.123455
     4  C   -0.107866
     5  N   -0.022975
     6  H    0.090684
     7  H    0.070987
     8  H    0.071643
     9  H    0.075534
    10  O   -0.256900
    11  C    0.257489
    12  O   -0.258791
    13  C    0.301008
    14  O   -0.331876
    15  O   -0.306292
    16  C    0.104319
    17  H    0.074013
    18  H    0.073057
    19  H    0.078582
    20  C   -0.059126
    21  N    0.076354
    22  H    0.196510
 Sum of Mulliken charges =  -0.00000

 Dipole moment (field-independent basis, Debye):
    X=             -8.0289    Y=             -3.0550    Z=             -0.8377  Tot=              8.6313
 Quadrupole moment (field-independent basis, Debye-Ang):
   XX=           -100.5683   YY=            -83.4024   ZZ=            -71.9912
   XY=              0.4274   XZ=              4.2445   YZ=             -4.9396

 Normal termination of Gaussian 16 at Wed Dec 27 18:51:30 2023.
