 Gaussian 16, Revision C.01,
 Gaussian 16:  ES64L-G16RevC.01  3-Jul-2019

 ----------------------------------------------------------------------
 # wb97xd def2svp geom=allchk scrf=(iefpcm,solvent=toluene) opt=(readfc
 ,ts,noeigen,maxcycles=50,maxstep=10)
 ----------------------------------------------------------------------

 Structure from the checkpoint file:  "da-2_2_sqm.chk"
 --------------
 da-2_2_sqm.out
 --------------
 Charge =  0 Multiplicity = 1

 SCF Done:  E(RwB97XD) =  -573.980330295     A.U. after   15 cycles
 SCF Done:  E(RwB97XD) =  -573.980294436     A.U. after   12 cycles
 SCF Done:  E(RwB97XD) =  -573.980330167     A.U. after   12 cycles
 SCF Done:  E(RwB97XD) =  -573.980325732     A.U. after   10 cycles
 SCF Done:  E(RwB97XD) =  -573.980219308     A.U. after   12 cycles
 SCF Done:  E(RwB97XD) =  -573.979979149     A.U. after   13 cycles
 SCF Done:  E(RwB97XD) =  -573.979883703     A.U. after   13 cycles
 SCF Done:  E(RwB97XD) =  -573.979760812     A.U. after   13 cycles
 SCF Done:  E(RwB97XD) =  -573.979605693     A.U. after   13 cycles
 SCF Done:  E(RwB97XD) =  -573.979273335     A.U. after   13 cycles
 SCF Done:  E(RwB97XD) =  -573.980238595     A.U. after   12 cycles
 SCF Done:  E(RwB97XD) =  -573.980327886     A.U. after   12 cycles
 SCF Done:  E(RwB97XD) =  -573.980267120     A.U. after   12 cycles
 SCF Done:  E(RwB97XD) =  -573.980329515     A.U. after   11 cycles
 SCF Done:  E(RwB97XD) =  -573.980330258     A.U. after   10 cycles
 SCF Done:  E(RwB97XD) =  -573.980319011     A.U. after   11 cycles
 SCF Done:  E(RwB97XD) =  -573.980330677     A.U. after   11 cycles
 SCF Done:  E(RwB97XD) =  -573.980330661     A.U. after    9 cycles
 SCF Done:  E(RwB97XD) =  -573.980330705     A.U. after    8 cycles
 SCF Done:  E(RwB97XD) =  -573.980330695     A.U. after    7 cycles
 Optimization completed.
    -- Stationary point found.

                         Standard orientation:
 ---------------------------------------------------------------------
 Center     Atomic      Atomic             Coordinates (Angstroms)
 Number     Number       Type             X           Y           Z
 ---------------------------------------------------------------------
      1          6           0       -1.813330    0.823219    0.184500
      2          6           0       -0.148596   -0.578488    1.163651
      3          6           0        0.774029    2.113753    0.384286
      4          6           0        1.055251    0.110395    1.157077
      5          6           0       -1.094081    1.227771   -0.922721
      6          6           0        0.154364    1.868368   -0.829203
      7          1           0        1.791681    2.511513    0.396457
      8          1           0        0.182557    2.321783    1.277670
      9          1           0        0.741409    1.975230   -1.745723
     10          1           0       -1.416347    0.876134   -1.907954
     11          1           0       -1.648794    1.343982    1.130887
     12          1           0       -0.814100   -0.733710    2.009594
     13          1           0        1.570210    0.508731    2.029826
     14          8           0        1.018077   -1.252919   -0.704922
     15          6           0       -0.146894   -1.493756    0.012471
     16          6           0        1.841799   -0.414666    0.007700
     17          8           0       -0.926572   -2.328152   -0.336746
     18          8           0        2.967723   -0.202363   -0.322960
     19          6           0       -3.067633    0.015144    0.092434
     20          1           0       -3.099573   -0.579663   -0.830151
     21          1           0       -3.166009   -0.670957    0.945399
     22          1           0       -3.944319    0.683996    0.109846
 ---------------------------------------------------------------------

 The electronic state is 1-A.
 Alpha  occ. eigenvalues --  -19.32108 -19.26268 -19.25923 -10.44697 -10.44395
 Alpha  occ. eigenvalues --  -10.34648 -10.34435 -10.33565 -10.33521 -10.32467
 Alpha  occ. eigenvalues --  -10.31900 -10.30800  -1.23635  -1.16226  -1.12360
 Alpha  occ. eigenvalues --   -0.94700  -0.91223  -0.87129  -0.79658  -0.77897
 Alpha  occ. eigenvalues --   -0.72398  -0.71569  -0.66783  -0.63616  -0.59857
 Alpha  occ. eigenvalues --   -0.59563  -0.58444  -0.55923  -0.55318  -0.53758
 Alpha  occ. eigenvalues --   -0.52442  -0.51624  -0.50203  -0.49648  -0.48847
 Alpha  occ. eigenvalues --   -0.48438  -0.45979  -0.45276  -0.44616  -0.41435
 Alpha  occ. eigenvalues --   -0.39607  -0.36953  -0.34917  -0.32229
 Alpha virt. eigenvalues --   -0.01265   0.01704   0.09074   0.12280   0.13066
 Alpha virt. eigenvalues --    0.14595   0.15551   0.17391   0.18714   0.19648
 Alpha virt. eigenvalues --    0.20296   0.22329   0.22880   0.23977   0.25393

 Mulliken charges:
               1
     1  C   -0.098839
     2  C   -0.155943
     3  C    0.018406
     4  C   -0.215862
     5  C   -0.060039
     6  C   -0.087520
     7  H    0.084570
     8  H    0.071180
     9  H    0.062170
    10  H    0.048941
    11  H    0.054417
    12  H    0.074387
    13  H    0.089892
    14  O   -0.294200
    15  C    0.298505
    16  C    0.307926
    17  O   -0.202558
    18  O   -0.196258
    19  C    0.017350
    20  H    0.061625
    21  H    0.052406
    22  H    0.069445
 Sum of Mulliken charges =  -0.00000

 Dipole moment (field-independent basis, Debye):
    X=             -2.9817    Y=              4.2218    Z=              3.2906  Tot=              6.1271
 Quadrupole moment (field-independent basis, Debye-Ang):
   XX=            -75.5785   YY=            -76.1655   ZZ=            -64.3072
   XY=             -0.1518   XZ=              2.2845   YZ=             -2.1360

 Normal termination of Gaussian 16 at Mon Jan  1 14:27:27 2024.
