 Gaussian 16, Revision C.01,
 Gaussian 16:  ES64L-G16RevC.01  3-Jul-2019

 ----------------------------------------------------------------------
 # wb97xd def2svp geom=allchk scrf=(iefpcm,solvent=toluene) opt=(readfc
 ,ts,noeigen,maxcycles=50,maxstep=10)
 ----------------------------------------------------------------------

 Structure from the checkpoint file:  "imda-2_1_opt_sqm_re.chk"
 --------------------
 imda-2_1_opt_sqm.out
 --------------------
 Charge =  0 Multiplicity = 1

 SCF Done:  E(RwB97XD) =  -3165.54154316     A.U. after   16 cycles
 SCF Done:  E(RwB97XD) =  -3165.54154263     A.U. after    9 cycles
 SCF Done:  E(RwB97XD) =  -3165.54151175     A.U. after   12 cycles
 SCF Done:  E(RwB97XD) =  -3165.54104810     A.U. after   13 cycles
 SCF Done:  E(RwB97XD) =  -3165.54021911     A.U. after   14 cycles
 SCF Done:  E(RwB97XD) =  -3165.54109357     A.U. after   14 cycles
 SCF Done:  E(RwB97XD) =  -3165.54143643     A.U. after   13 cycles
 SCF Done:  E(RwB97XD) =  -3165.54145577     A.U. after   13 cycles
 SCF Done:  E(RwB97XD) =  -3165.54149827     A.U. after   13 cycles
 SCF Done:  E(RwB97XD) =  -3165.54112469     A.U. after   15 cycles
 SCF Done:  E(RwB97XD) =  -3165.54154384     A.U. after   10 cycles
 SCF Done:  E(RwB97XD) =  -3165.54154408     A.U. after    9 cycles
 SCF Done:  E(RwB97XD) =  -3165.54154408     A.U. after    8 cycles
 SCF Done:  E(RwB97XD) =  -3165.54147742     A.U. after   13 cycles
 SCF Done:  E(RwB97XD) =  -3165.54154384     A.U. after   13 cycles
 SCF Done:  E(RwB97XD) =  -3165.54154382     A.U. after   10 cycles
 SCF Done:  E(RwB97XD) =  -3165.54154407     A.U. after    9 cycles
 SCF Done:  E(RwB97XD) =  -3165.54154353     A.U. after   10 cycles
 SCF Done:  E(RwB97XD) =  -3165.54154364     A.U. after    9 cycles
 SCF Done:  E(RwB97XD) =  -3165.54154375     A.U. after    8 cycles
 Optimization completed.
    -- Stationary point found.

                         Standard orientation:
 ---------------------------------------------------------------------
 Center     Atomic      Atomic             Coordinates (Angstroms)
 Number     Number       Type             X           Y           Z
 ---------------------------------------------------------------------
      1          6           0       -2.051547   -2.092436   -0.340330
      2          6           0        0.379377   -0.586620    1.612261
      3          6           0       -2.050632    0.127031   -0.679794
      4          6           0       -0.282886    0.576419    1.568712
      5          6           0       -3.057995   -1.564243    0.440653
      6          6           0       -3.059956   -0.158985    0.224963
      7          6           0       -1.541601    1.440744   -1.193688
      8          1           0       -0.716937    1.261990   -1.899527
      9          1           0       -2.329473    1.956402   -1.764116
     10          6           0       -1.065393    2.391209   -0.083748
     11          1           0       -0.692665    3.334242   -0.506944
     12          1           0       -1.922224    2.638016    0.568279
     13          6           0        0.022236    1.851492    0.823637
     14          8           0        1.035338    2.463104    1.061768
     15          1           0       -1.150972    0.661938    2.231145
     16          1           0        0.052049   -1.352666    2.320271
     17          6           0        1.557926   -1.042556    0.853860
     18          8           0        2.263848   -1.937784    1.171257
     19          7           0       -1.467854   -1.060288   -1.020446
     20          1           0       -0.660237   -1.144665   -1.625139
     21          1           0       -1.722241   -3.118762   -0.481799
     22         35           0        1.925035   -0.146072   -0.876996
     23          1           0       -3.724943   -2.128686    1.088871
     24          1           0       -3.724284    0.571841    0.683579
 ---------------------------------------------------------------------

 The electronic state is 1-A.
 Alpha  occ. eigenvalues -- -483.06634 -62.64865 -56.45591 -56.45309 -56.45274
 Alpha  occ. eigenvalues --  -19.29949 -19.26602 -14.49565 -10.45732 -10.41022
 Alpha  occ. eigenvalues --  -10.34959 -10.34292 -10.33044 -10.32333 -10.32324
 Alpha  occ. eigenvalues --  -10.31920 -10.28814 -10.28784  -8.81813  -6.64225
 Alpha  occ. eigenvalues --   -6.63163  -6.63050  -2.74618  -2.74339  -2.74251
 Alpha  occ. eigenvalues --   -2.73406  -2.73405  -1.19612  -1.15514  -1.08142
 Alpha  occ. eigenvalues --   -0.93079  -0.90651  -0.88330  -0.87019  -0.82603
 Alpha  occ. eigenvalues --   -0.78387  -0.74246  -0.68321  -0.67961  -0.66545
 Alpha  occ. eigenvalues --   -0.62004  -0.60951  -0.59645  -0.58477  -0.56163
 Alpha  occ. eigenvalues --   -0.55108  -0.54305  -0.53600  -0.52194  -0.51897
 Alpha  occ. eigenvalues --   -0.50840  -0.49973  -0.48104  -0.47572  -0.46978
 Alpha  occ. eigenvalues --   -0.45605  -0.44043  -0.39203  -0.38859  -0.38147
 Alpha  occ. eigenvalues --   -0.37198  -0.35015  -0.33373  -0.29262
 Alpha virt. eigenvalues --   -0.02298   0.04103   0.06168   0.09776   0.11672
 Alpha virt. eigenvalues --    0.13408   0.13782   0.14768   0.15676   0.17574
 Alpha virt. eigenvalues --    0.19696   0.20165   0.20580   0.21566   0.23377

 Mulliken charges:
               1
     1  C    0.027721
     2  C   -0.038635
     3  C   -0.083869
     4  C    0.024710
     5  C   -0.077309
     6  C   -0.113015
     7  C    0.112362
     8  H    0.026508
     9  H    0.058413
    10  C   -0.034889
    11  H    0.056336
    12  H    0.074716
    13  C    0.063490
    14  O   -0.206412
    15  H    0.088890
    16  H    0.077873
    17  C    0.120000
    18  O   -0.142606
    19  N   -0.116040
    20  H    0.149093
    21  H    0.042588
    22  Br  -0.145073
    23  H    0.023178
    24  H    0.011969
 Sum of Mulliken charges =  -0.00000

 Dipole moment (field-independent basis, Debye):
    X=             -3.9721    Y=              0.2720    Z=             -0.7963  Tot=              4.0603
 Quadrupole moment (field-independent basis, Debye-Ang):
   XX=           -103.7473   YY=            -94.5566   ZZ=            -88.4277
   XY=             -4.2244   XZ=             -6.6404   YZ=             -1.4125

 Normal termination of Gaussian 16 at Thu Dec 28 14:05:02 2023.
