 Gaussian 16, Revision C.01,
 Gaussian 16:  ES64L-G16RevC.01  3-Jul-2019

 ----------------------------------------------------------------------
 # wb97xd def2svp geom=allchk scrf=(iefpcm,solvent=toluene) opt=(readfc
 ,ts,noeigen,maxcycles=50,maxstep=10)
 ----------------------------------------------------------------------

 Structure from the checkpoint file:  "imda-1_1_opt_sqm_re.chk"
 --------------------
 imda-1_1_opt_sqm.out
 --------------------
 Charge =  0 Multiplicity = 1

 SCF Done:  E(RwB97XD) =  -961.702744344     A.U. after   15 cycles
 SCF Done:  E(RwB97XD) =  -961.702705125     A.U. after   12 cycles
 SCF Done:  E(RwB97XD) =  -961.702621928     A.U. after   13 cycles
 SCF Done:  E(RwB97XD) =  -961.702733323     A.U. after   12 cycles
 SCF Done:  E(RwB97XD) =  -961.702755038     A.U. after   12 cycles
 SCF Done:  E(RwB97XD) =  -961.702722785     A.U. after   12 cycles
 SCF Done:  E(RwB97XD) =  -961.702757038     A.U. after   12 cycles
 SCF Done:  E(RwB97XD) =  -961.702757556     A.U. after   10 cycles
 SCF Done:  E(RwB97XD) =  -961.702756461     A.U. after    9 cycles
 SCF Done:  E(RwB97XD) =  -961.702757175     A.U. after   10 cycles
 SCF Done:  E(RwB97XD) =  -961.702757177     A.U. after    9 cycles
 SCF Done:  E(RwB97XD) =  -961.702758241     A.U. after    9 cycles
 SCF Done:  E(RwB97XD) =  -961.702757702     A.U. after   12 cycles
 SCF Done:  E(RwB97XD) =  -961.702758001     A.U. after    8 cycles
 SCF Done:  E(RwB97XD) =  -961.702758088     A.U. after    9 cycles
 Optimization completed.
    -- Stationary point found.

                         Standard orientation:
 ---------------------------------------------------------------------
 Center     Atomic      Atomic             Coordinates (Angstroms)
 Number     Number       Type             X           Y           Z
 ---------------------------------------------------------------------
      1          6           0       -2.466948    0.314869   -0.219369
      2          6           0        0.988067    1.272229    1.116379
      3          6           0       -0.918676   -1.478461   -0.041002
      4          6           0        1.367418   -0.002396    1.098824
      5          6           0       -2.672172   -0.350334    0.939231
      6          6           0       -1.719670   -1.457692    1.046561
      7          6           0        0.227542   -2.403893   -0.322575
      8          1           0        0.463461   -2.978417    0.587508
      9          1           0       -0.073956   -3.148529   -1.079577
     10          6           0        1.487974   -1.714266   -0.857172
     11          1           0        2.261293   -2.451394   -1.120114
     12          1           0        1.251309   -1.189445   -1.800293
     13          6           0        2.164724   -0.663760    0.008879
     14          8           0        3.314183   -0.349115   -0.188724
     15          1           0        1.058069   -0.628249    1.941023
     16          1           0        0.413109    1.710253    1.933353
     17          6           0       -1.346682   -0.364162   -0.959476
     18          1           0       -1.687685   -0.753782   -1.936742
     19          1           0       -0.530134    0.344420   -1.183193
     20         17           0        1.284049    2.383796   -0.187990
     21          6           0       -3.171947    1.524262   -0.739291
     22          1           0       -2.465479    2.359295   -0.879038
     23          1           0       -3.960922    1.855311   -0.049508
     24          1           0       -3.634517    1.330141   -1.720848
     25          1           0       -1.651508   -2.140434    1.896300
     26          1           0       -3.423119   -0.099159    1.690814
 ---------------------------------------------------------------------

 The electronic state is 1-A.
 Alpha  occ. eigenvalues -- -101.68793 -19.25543 -10.40038 -10.36776 -10.32225
 Alpha  occ. eigenvalues --  -10.31259 -10.31231 -10.30185 -10.30080 -10.30050
 Alpha  occ. eigenvalues --  -10.29685 -10.29206 -10.29010  -9.59536  -7.34903
 Alpha  occ. eigenvalues --   -7.33980  -7.33911  -1.14499  -0.97844  -0.96150
 Alpha  occ. eigenvalues --   -0.89929  -0.86025  -0.83820  -0.79555  -0.77587
 Alpha  occ. eigenvalues --   -0.72960  -0.70511  -0.62719  -0.61631  -0.60762
 Alpha  occ. eigenvalues --   -0.59595  -0.57495  -0.55478  -0.54846  -0.53432
 Alpha  occ. eigenvalues --   -0.52541  -0.49932  -0.49800  -0.48957  -0.48601
 Alpha  occ. eigenvalues --   -0.47407  -0.45886  -0.45351  -0.44686  -0.43064
 Alpha  occ. eigenvalues --   -0.42831  -0.41365  -0.40119  -0.38209  -0.34790
 Alpha  occ. eigenvalues --   -0.33873  -0.28291
 Alpha virt. eigenvalues --    0.02934   0.04843   0.07721   0.12607   0.13317
 Alpha virt. eigenvalues --    0.14514   0.15302   0.16455   0.17482   0.18562
 Alpha virt. eigenvalues --    0.19277   0.20641   0.21725   0.22245   0.22713

 Mulliken charges:
               1
     1  C   -0.223244
     2  C   -0.018741
     3  C   -0.206734
     4  C   -0.031236
     5  C   -0.061697
     6  C   -0.062616
     7  C    0.095764
     8  H    0.029748
     9  H    0.050422
    10  C   -0.057604
    11  H    0.062169
    12  H    0.078700
    13  C    0.071096
    14  O   -0.224336
    15  H    0.081344
    16  H    0.099677
    17  C    0.127718
    18  H    0.064242
    19  H    0.038957
    20  Cl  -0.102460
    21  C    0.051585
    22  H    0.045735
    23  H    0.035057
    24  H    0.045102
    25  H    0.005715
    26  H    0.005636
 Sum of Mulliken charges =  -0.00000

 Dipole moment (field-independent basis, Debye):
    X=             -3.0670    Y=             -1.3974    Z=              0.4616  Tot=              3.4018
 Quadrupole moment (field-independent basis, Debye-Ang):
   XX=            -98.8821   YY=            -80.9232   ZZ=            -77.0221
   XY=             -5.4586   XZ=              0.9896   YZ=              0.5644

 Normal termination of Gaussian 16 at Fri Dec 22 23:54:56 2023.
