 Gaussian 16, Revision C.01,
 Gaussian 16:  ES64L-G16RevC.01  3-Jul-2019

 ----------------------------------------------------------------------
 # wb97xd def2svp scrf=(iefpcm,solvent=toluene) opt=(readfc,ts,noeigen,
 maxcycles=50,maxstep=10)
 ----------------------------------------------------------------------

 ------------------
 TS-898_opt_sqm.out
 ------------------
 Symbolic Z-matrix:
 Charge =  0 Multiplicity = 1

 SCF Done:  E(RwB97XD) =  -864.737593153     A.U. after   14 cycles
 SCF Done:  E(RwB97XD) =  -864.737759518     A.U. after   12 cycles
 SCF Done:  E(RwB97XD) =  -864.737872060     A.U. after   13 cycles
 SCF Done:  E(RwB97XD) =  -864.737808126     A.U. after   13 cycles
 SCF Done:  E(RwB97XD) =  -864.737762789     A.U. after   12 cycles
 SCF Done:  E(RwB97XD) =  -864.737801124     A.U. after   12 cycles
 SCF Done:  E(RwB97XD) =  -864.737808194     A.U. after   12 cycles
 SCF Done:  E(RwB97XD) =  -864.737841708     A.U. after   12 cycles
 SCF Done:  E(RwB97XD) =  -864.737837491     A.U. after   11 cycles
 SCF Done:  E(RwB97XD) =  -864.737659521     A.U. after   14 cycles
 SCF Done:  E(RwB97XD) =  -864.737841077     A.U. after   11 cycles
 SCF Done:  E(RwB97XD) =  -864.737314529     A.U. after   13 cycles
 SCF Done:  E(RwB97XD) =  -864.737714988     A.U. after   12 cycles
 SCF Done:  E(RwB97XD) =  -864.737774010     A.U. after   12 cycles
 SCF Done:  E(RwB97XD) =  -864.737842863     A.U. after   12 cycles
 SCF Done:  E(RwB97XD) =  -864.737843242     A.U. after   10 cycles
 SCF Done:  E(RwB97XD) =  -864.737844029     A.U. after    9 cycles
 SCF Done:  E(RwB97XD) =  -864.737787550     A.U. after   12 cycles
 SCF Done:  E(RwB97XD) =  -864.737843733     A.U. after   12 cycles
 SCF Done:  E(RwB97XD) =  -864.737843889     A.U. after   10 cycles
 Optimization completed.
    -- Stationary point found.

                         Standard orientation:
 ---------------------------------------------------------------------
 Center     Atomic      Atomic             Coordinates (Angstroms)
 Number     Number       Type             X           Y           Z
 ---------------------------------------------------------------------
      1          6           0        0.588966   -0.475458    0.152355
      2          6           0        1.831592    0.042011   -0.367224
      3          8           0        1.958509    0.881128   -1.266627
      4          6           0       -0.651011   -0.023012   -0.353103
      5          6           0       -0.683473    2.142638    1.283006
      6          1           0       -1.011925    2.550213    2.248019
      7          1           0        0.366885    1.821970    1.351466
      8          1           0       -0.770381    2.915240    0.510427
      9          7           0       -1.474623    0.976167    0.900087
     10          1           0       -1.585347    0.327823    1.681651
     11          1           0       -2.414809    1.218072    0.580996
     12         17           0       -1.998967   -1.302755   -0.429462
     13          6           0       -0.763407    0.838514   -1.584128
     14          1           0       -0.128014    1.725461   -1.491359
     15          1           0       -0.382798    0.275926   -2.446307
     16          1           0       -1.811358    1.110913   -1.772644
     17          6           0        0.610553   -1.439350    1.321115
     18          1           0       -0.393599   -1.834708    1.529571
     19          1           0        1.247200   -2.318944    1.132797
     20          1           0        0.983313   -0.979968    2.255807
     21          6           0        3.107611   -0.515371    0.264113
     22          1           0        3.968032   -0.020765   -0.203531
     23          1           0        3.136270   -0.343861    1.351339
     24          1           0        3.188279   -1.602560    0.108231
 ---------------------------------------------------------------------

 The electronic state is 1-A.
 Alpha  occ. eigenvalues -- -101.66009 -19.18330 -14.53291 -10.40653 -10.35276
 Alpha  occ. eigenvalues --  -10.34214 -10.29622 -10.28403 -10.27306 -10.25550
 Alpha  occ. eigenvalues --   -9.56779  -7.32097  -7.31233  -7.31201  -1.07209
 Alpha  occ. eigenvalues --   -1.06384  -0.94770  -0.86176  -0.83060  -0.80246
 Alpha  occ. eigenvalues --   -0.78770  -0.73327  -0.67036  -0.65297  -0.60127
 Alpha  occ. eigenvalues --   -0.58359  -0.56003  -0.53705  -0.51968  -0.50907
 Alpha  occ. eigenvalues --   -0.49767  -0.49438  -0.47963  -0.46958  -0.46331
 Alpha  occ. eigenvalues --   -0.44967  -0.44101  -0.44047  -0.42679  -0.40558
 Alpha  occ. eigenvalues --   -0.38426  -0.37841  -0.28808  -0.25258
 Alpha virt. eigenvalues --    0.08285   0.08754   0.11084   0.14213   0.15420
 Alpha virt. eigenvalues --    0.16556   0.17185   0.19229   0.19767   0.20875
 Alpha virt. eigenvalues --    0.21501   0.22706   0.22947   0.24416   0.24950

 Mulliken charges:
               1
     1  C   -0.178004
     2  C    0.015604
     3  O   -0.353680
     4  C   -0.246954
     5  C    0.015664
     6  H    0.075701
     7  H    0.092142
     8  H    0.080391
     9  N   -0.147491
    10  H    0.176013
    11  H    0.174695
    12  Cl  -0.158528
    13  C    0.101523
    14  H    0.067515
    15  H    0.072627
    16  H    0.024656
    17  C    0.029531
    18  H    0.018034
    19  H    0.030531
    20  H    0.018198
    21  C   -0.021110
    22  H    0.034063
    23  H    0.032223
    24  H    0.046659
 Sum of Mulliken charges =  -0.00000

 Dipole moment (field-independent basis, Debye):
    X=             -4.9604    Y=              2.7818    Z=              4.8825  Tot=              7.4955
 Quadrupole moment (field-independent basis, Debye-Ang):
   XX=            -70.4253   YY=            -66.8926   ZZ=            -67.6868
   XY=            -10.8632   XZ=              1.0715   YZ=              4.9401

 Normal termination of Gaussian 16 at Tue Dec 19 17:48:25 2023.
