 Gaussian 16, Revision C.01,
 Gaussian 16:  ES64L-G16RevC.01  3-Jul-2019

 -----------------------------------------------------------
 # wb97xd def2svp scrf=(iefpcm,solvent=toluene) freq=noraman
 -----------------------------------------------------------

 --------------------
 TS-92_opt_hf_re2.out
 --------------------
 Symbolic Z-matrix:
 Charge =  0 Multiplicity = 1

                         Standard orientation:
 ---------------------------------------------------------------------
 Center     Atomic      Atomic             Coordinates (Angstroms)
 Number     Number       Type             X           Y           Z
 ---------------------------------------------------------------------
      1          6           0       -0.909170   -0.705480    0.186309
      2          6           0       -2.289420   -0.460480    0.151429
      3          8           0       -2.856911    0.640049    0.029319
      4          6           0        0.049849    0.412131    0.270989
      5          6           0       -0.801762    2.637460   -1.057231
      6          1           0       -0.190752    3.335860   -0.475871
      7          1           0       -0.914182    3.018470   -2.080861
      8          1           0       -1.783682    2.488800   -0.595691
      9          7           0       -0.140971    1.319760   -1.109501
     10          1           0       -0.703341    0.675620   -1.674711
     11          1           0        0.773399    1.397331   -1.562051
     12          6           0        1.494530   -0.073849    0.161509
     13          6           0        1.839160   -0.978679   -0.855321
     14          6           0        3.150400   -1.419298   -1.012591
     15          6           0        4.149160   -0.968048   -0.149341
     16          6           0        3.821320   -0.072978    0.865669
     17          6           0        2.507709    0.374182    1.016159
     18          1           0        1.058700   -1.353399   -1.522091
     19          1           0        3.391810   -2.126258   -1.809431
     20          1           0        5.177730   -1.315907   -0.266541
     21          1           0        4.592769    0.283793    1.551669
     22          1           0        2.281519    1.072982    1.821739
     23          6           0       -0.185071    1.368660    1.438759
     24          1           0       -1.244041    1.649380    1.471309
     25          1           0        0.045399    0.824271    2.363959
     26          1           0        0.436429    2.277141    1.410169
     27          1           0       -0.543510   -1.729150    0.236619
     28          8           0       -3.050930   -1.599571    0.221729
     29          6           0       -4.439830   -1.426421    0.098699
     30          1           0       -4.887389   -2.426532    0.172529
     31          1           0       -4.847250   -0.783732    0.895209
     32          1           0       -4.715340   -0.974022   -0.868091
 ---------------------------------------------------------------------

 SCF Done:  E(RwB97XD) =  -671.970647950     A.U. after   14 cycles

 The electronic state is 1-A.
 Alpha  occ. eigenvalues --  -19.24620 -19.17821 -14.54336 -10.36532 -10.36363
 Alpha  occ. eigenvalues --  -10.34730 -10.32111 -10.31934 -10.31140 -10.31126
 Alpha  occ. eigenvalues --  -10.31095 -10.31049 -10.31005 -10.28936 -10.22717
 Alpha  occ. eigenvalues --   -1.13994  -1.07629  -1.03757  -0.96408  -0.89826
 Alpha  occ. eigenvalues --   -0.84787  -0.83123  -0.80997  -0.79896  -0.75076
 Alpha  occ. eigenvalues --   -0.71461  -0.69854  -0.66553  -0.65819  -0.62396
 Alpha  occ. eigenvalues --   -0.60918  -0.58527  -0.57616  -0.55609  -0.54045
 Alpha  occ. eigenvalues --   -0.53587  -0.52957  -0.52139  -0.51675  -0.50916
 Alpha  occ. eigenvalues --   -0.49317  -0.48659  -0.46590  -0.46312  -0.46076
 Alpha  occ. eigenvalues --   -0.45525  -0.44040  -0.43312  -0.42337  -0.41806
 Alpha  occ. eigenvalues --   -0.39539  -0.34172  -0.34020  -0.33903  -0.30970
 Alpha  occ. eigenvalues --   -0.23595
 Alpha virt. eigenvalues --    0.04212   0.05020   0.11320   0.13415   0.14062
 Alpha virt. eigenvalues --    0.15162   0.16707   0.18041   0.18345   0.18437
 Alpha virt. eigenvalues --    0.19102   0.20534   0.21306   0.21873   0.22311

 Mulliken charges:
               1
     1  C   -0.307231
     2  C    0.269668
     3  O   -0.419682
     4  C   -0.099708
     5  C    0.026830
     6  H    0.067088
     7  H    0.072561
     8  H    0.102971
     9  N   -0.112858
    10  H    0.186853
    11  H    0.182589
    12  C   -0.002515
    13  C   -0.060081
    14  C   -0.018969
    15  C   -0.015143
    16  C   -0.022469
    17  C   -0.038063
    18  H    0.020913
    19  H    0.031513
    20  H    0.032358
    21  H    0.029942
    22  H    0.018413
    23  C    0.063178
    24  H    0.060960
    25  H    0.056344
    26  H    0.016891
    27  H    0.000947
    28  O   -0.373260
    29  C    0.151899
    30  H    0.032993
    31  H    0.026216
    32  H    0.018851
 Sum of Mulliken charges =  -0.00000

 Dipole moment (field-independent basis, Debye):
    X=              5.2349    Y=              4.0259    Z=             -3.3733  Tot=              7.4156
 Quadrupole moment (field-independent basis, Debye-Ang):
   XX=            -92.5011   YY=            -85.3909   ZZ=            -82.7107
   XY=              0.2297   XZ=              2.1491   YZ=             -1.0287

  Exact polarizability:     214.984      -5.104     142.540       4.727      16.511     130.920
 Approx polarizability:     183.484      -7.307     145.879       5.588      18.330     138.910

 ******    1 imaginary frequencies (negative Signs) ******

                      1                      2                      3
                      A                      A                      A
 Frequencies --    -77.0552                49.4329                73.3979
 Red. masses --      2.7895                 3.8033                 3.0836
 Frc consts  --      0.0098                 0.0055                 0.0098
 IR Inten    --      2.1438                 0.5010                 5.4023

                      4                      5                      6
                      A                      A                      A
 Frequencies --     84.7436               102.0397               118.4663
 Red. masses --      4.4232                 1.8772                 2.1170
 Frc consts  --      0.0187                 0.0115                 0.0175
 IR Inten    --      5.2474                 7.5980                 4.0365

                      7                      8                      9
                      A                      A                      A
 Frequencies --    137.2078               159.9230               215.0286
 Red. masses --      3.6196                 2.1876                 3.7407
 Frc consts  --      0.0401                 0.0330                 0.1019
 IR Inten    --      1.1871                 1.7933                19.8970

                     10                     11                     12
                      A                      A                      A
 Frequencies --    236.4074               265.1097               284.3100
 Red. masses --      3.4850                 1.3503                 3.5275
 Frc consts  --      0.1148                 0.0559                 0.1680
 IR Inten    --     36.8651                 1.2487                 1.3535

                     13                     14                     15
                      A                      A                      A
 Frequencies --    298.1277               320.0611               356.9733
 Red. masses --      3.2209                 3.7071                 3.0822
 Frc consts  --      0.1687                 0.2237                 0.2314
 IR Inten    --     21.7382                12.2099                36.1556

                     16                     17                     18
                      A                      A                      A
 Frequencies --    374.6401               392.9587               403.2632
 Red. masses --      3.8726                 2.1337                 1.3057
 Frc consts  --      0.3202                 0.1941                 0.1251
 IR Inten    --     19.2148                10.5316                 6.0082

                     19                     20                     21
                      A                      A                      A
 Frequencies --    426.0649               460.8055               545.3118
 Red. masses --      2.6187                 2.9894                 2.8969
 Frc consts  --      0.2801                 0.3740                 0.5075
 IR Inten    --      0.1278                 8.5364                20.9585

                     22                     23                     24
                      A                      A                      A
 Frequencies --    567.6039               604.1793               623.3037
 Red. masses --      1.8443                 3.1800                 2.0198
 Frc consts  --      0.3501                 0.6839                 0.4623
 IR Inten    --     13.4208                29.3926               126.3559

                     25                     26                     27
                      A                      A                      A
 Frequencies --    636.1854               726.7412               730.7507
 Red. masses --      6.0248                 4.7080                 1.6555
 Frc consts  --      1.4367                 1.4650                 0.5208
 IR Inten    --      3.1850                 7.9482                39.6984

                     28                     29                     30
                      A                      A                      A
 Frequencies --    755.3942               789.6558               808.3557
 Red. masses --      2.0595                 7.1951                 2.1995
 Frc consts  --      0.6924                 2.6434                 0.8468
 IR Inten    --     61.0870                25.2522                 7.7242

                     31                     32                     33
                      A                      A                      A
 Frequencies --    842.8237               880.0781               941.6660
 Red. masses --      1.8852                 1.2460                 2.8275
 Frc consts  --      0.7890                 0.5686                 1.4772
 IR Inten    --     21.5912                 0.1388                64.3720

                     34                     35                     36
                      A                      A                      A
 Frequencies --    969.0781               989.0919              1019.4582
 Red. masses --      1.5302                 3.0414                 5.2829
 Frc consts  --      0.8467                 1.7531                 3.2349
 IR Inten    --      2.0427                38.4786                 2.0570

                     37                     38                     39
                      A                      A                      A
 Frequencies --   1023.5203              1044.1065              1054.0519
 Red. masses --      1.3917                 1.3397                 1.8402
 Frc consts  --      0.8590                 0.8605                 1.2046
 IR Inten    --      0.6021                 0.3346                26.5176

                     40                     41                     42
                      A                      A                      A
 Frequencies --   1061.1037              1067.3756              1085.0193
 Red. masses --      2.0805                 1.9721                 1.3276
 Frc consts  --      1.3801                 1.3238                 0.9209
 IR Inten    --     12.3169                21.7877                48.3109

                     43                     44                     45
                      A                      A                      A
 Frequencies --   1097.8750              1118.0333              1141.5617
 Red. masses --      1.8773                 1.6009                 2.3050
 Frc consts  --      1.3332                 1.1791                 1.7698
 IR Inten    --     15.1599                19.8905                57.8300

                     46                     47                     48
                      A                      A                      A
 Frequencies --   1151.7117              1177.0867              1182.7103
 Red. masses --      1.7446                 1.0922                 1.2935
 Frc consts  --      1.3634                 0.8916                 1.0661
 IR Inten    --      6.8402                 1.3078                 1.3701

                     49                     50                     51
                      A                      A                      A
 Frequencies --   1204.6791              1208.2792              1214.0347
 Red. masses --      1.6684                 1.4323                 1.4316
 Frc consts  --      1.4266                 1.2320                 1.2432
 IR Inten    --    157.3944               202.2939               133.8303

                     52                     53                     54
                      A                      A                      A
 Frequencies --   1264.8685              1301.7942              1319.3226
 Red. masses --      3.0615                 2.9925                 1.4436
 Frc consts  --      2.8859                 2.9879                 1.4805
 IR Inten    --     41.6539                74.4603                81.0628

                     55                     56                     57
                      A                      A                      A
 Frequencies --   1340.4813              1352.6578              1373.3692
 Red. masses --      1.4463                 1.4072                 3.5656
 Frc consts  --      1.5311                 1.5170                 3.9624
 IR Inten    --     10.9676                28.0026                 3.6057

                     58                     59                     60
                      A                      A                      A
 Frequencies --   1395.1099              1428.7717              1441.4619
 Red. masses --      1.3970                 1.1725                 1.4384
 Frc consts  --      1.6020                 1.4102                 1.7609
 IR Inten    --     22.7753                21.3653               214.8949

                     61                     62                     63
                      A                      A                      A
 Frequencies --   1459.6531              1464.2431              1481.0804
 Red. masses --      1.0426                 1.0825                 1.1179
 Frc consts  --      1.3088                 1.3675                 1.4448
 IR Inten    --      5.9507                 5.8861               188.1956

                     64                     65                     66
                      A                      A                      A
 Frequencies --   1483.0404              1485.5946              1495.6274
 Red. masses --      1.1142                 1.1589                 1.8843
 Frc consts  --      1.4438                 1.5069                 2.4834
 IR Inten    --     49.3610                16.9105                17.5484

                     67                     68                     69
                      A                      A                      A
 Frequencies --   1510.0432              1515.2460              1545.1752
 Red. masses --      1.0478                 1.9169                 2.4558
 Frc consts  --      1.4078                 2.5931                 3.4546
 IR Inten    --      4.5221               315.8881                 9.5398

                     70                     71                     72
                      A                      A                      A
 Frequencies --   1606.4078              1671.0227              1696.3245
 Red. masses --      1.0940                 6.1879                 6.4041
 Frc consts  --      1.6634                10.1802                10.8574
 IR Inten    --     22.1070                10.8559                87.7551

                     73                     74                     75
                      A                      A                      A
 Frequencies --   1707.5880              3037.1377              3059.0990
 Red. masses --      8.2979                 1.0329                 1.0417
 Frc consts  --     14.2556                 5.6136                 5.7434
 IR Inten    --    597.1126                89.3765                33.7844

                     76                     77                     78
                      A                      A                      A
 Frequencies --   3086.3006              3121.4000              3159.7186
 Red. masses --      1.0342                 1.1061                 1.0998
 Frc consts  --      5.8041                 6.3495                 6.4693
 IR Inten    --     39.8717                43.0254                17.0878

                     79                     80                     81
                      A                      A                      A
 Frequencies --   3164.1297              3195.9112              3198.9431
 Red. masses --      1.1059                 1.1047                 1.1060
 Frc consts  --      6.5237                 6.6482                 6.6684
 IR Inten    --     32.3658                 2.8638                 7.4763

                     82                     83                     84
                      A                      A                      A
 Frequencies --   3201.6036              3208.5196              3216.8966
 Red. masses --      1.0869                 1.0902                 1.0950
 Frc consts  --      6.5640                 6.6127                 6.6764
 IR Inten    --      1.0381                 1.4627                12.8646

                     85                     86                     87
                      A                      A                      A
 Frequencies --   3227.0888              3231.5415              3242.5779
 Red. masses --      1.0997                 1.1100                 1.0943
 Frc consts  --      6.7475                 6.8297                 6.7793
 IR Inten    --     17.4122                 8.3807                 4.8178

                     88                     89                     90
                      A                      A                      A
 Frequencies --   3253.1991              3470.9962              3557.7910
 Red. masses --      1.0911                 1.0559                 1.0953
 Frc consts  --      6.8034                 7.4953                 8.1684
 IR Inten    --      3.0041                28.2994                73.9477

 - Thermochemistry -
 -------------------
 Temperature   298.150 Kelvin.  Pressure   1.00000 Atm.
 Atom     1 has atomic number  6 and mass  12.00000

 Molecular mass:   207.12593 amu.
 Principal axes and moments of inertia in atomic units:
                           1         2         3
     Eigenvalues --  1618.253065423.705996083.78635
           X            1.00000   0.00106   0.00228
           Y           -0.00110   0.99988   0.01540
           Z           -0.00227  -0.01540   0.99988
 This molecule is an asymmetric top.
 Rotational symmetry number  1.
 Warning -- assumption of classical behavior for rotation
           may cause significant error
 Rotational temperatures (Kelvin)      0.05352     0.01597     0.01424
 Rotational constants (GHZ):           1.11524     0.33275     0.29665
    1 imaginary frequencies ignored.
 Zero-point vibrational energy     723690.0 (Joules/Mol)
                                  172.96607 (Kcal/Mol)
 Warning -- explicit consideration of  22 degrees of freedom as
           vibrations may cause significant error
 Vibrational temperatures:     71.12   105.60   121.93   146.81   170.45
          (Kelvin)            197.41   230.09   309.38   340.14   381.43
                              409.06   428.94   460.50   513.60   539.02
                              565.38   580.21   613.01   663.00   784.58
                              816.66   869.28   896.79   915.33  1045.62
                             1051.39  1086.84  1136.14  1163.04  1212.64
                             1266.24  1354.85  1394.29  1423.08  1466.77
                             1472.62  1502.24  1516.55  1526.69  1535.72
                             1561.10  1579.60  1608.60  1642.45  1657.06
                             1693.57  1701.66  1733.26  1738.44  1746.73
                             1819.86  1872.99  1898.21  1928.65  1946.17
                             1975.97  2007.25  2055.68  2073.94  2100.12
                             2106.72  2130.94  2133.76  2137.44  2151.87
                             2172.62  2180.10  2223.16  2311.26  2404.23
                             2440.63  2456.84  4369.76  4401.36  4440.50
                             4491.00  4546.13  4552.48  4598.20  4602.57
                             4606.39  4616.34  4628.40  4643.06  4649.47
                             4665.35  4680.63  4993.99  5118.87

 Zero-point correction=                           0.275639 (Hartree/Particle)
 Thermal correction to Energy=                    0.290245
 Thermal correction to Enthalpy=                  0.291190
 Thermal correction to Gibbs Free Energy=         0.234275
 Sum of electronic and zero-point Energies=           -671.695009
 Sum of electronic and thermal Energies=              -671.680402
 Sum of electronic and thermal Enthalpies=            -671.679458
 Sum of electronic and thermal Free Energies=         -671.736373

                     E (Thermal)             CV                S
                      KCal/Mol        Cal/Mol-Kelvin    Cal/Mol-Kelvin
 Total                  182.132             56.167            119.787
 Electronic               0.000              0.000              0.000
 Translational            0.889              2.981             41.888
 Rotational               0.889              2.981             32.346
 Vibrational            180.354             50.206             45.552
 Vibration     1          0.595              1.978              4.840
 Vibration     2          0.599              1.967              4.060
 Vibration     3          0.601              1.960              3.778
 Vibration     4          0.604              1.948              3.415
 Vibration     5          0.609              1.934              3.125
 Vibration     6          0.614              1.916              2.842
 Vibration     7          0.622              1.891              2.551
 Vibration     8          0.645              1.818              2.001
 Vibration     9          0.655              1.785              1.830
 Vibration    10          0.671              1.737              1.628
 Vibration    11          0.683              1.703              1.508
 Vibration    12          0.691              1.677              1.427
 Vibration    13          0.706              1.635              1.310
 Vibration    14          0.732              1.561              1.135
 Vibration    15          0.746              1.524              1.061
 Vibration    16          0.760              1.485              0.989
 Vibration    17          0.769              1.463              0.951
 Vibration    18          0.788              1.414              0.872
 Vibration    19          0.819              1.337              0.764
 Vibration    20          0.900              1.150              0.554
 Vibration    21          0.924              1.101              0.509
 Vibration    22          0.963              1.023              0.443

 Normal termination of Gaussian 16 at Sat Dec 30 21:06:45 2023.
