 Gaussian 16, Revision C.01,
 Gaussian 16:  ES64L-G16RevC.01  3-Jul-2019

 -----------------------------------------------------------
 # wb97xd def2svp scrf=(iefpcm,solvent=toluene) freq=noraman
 -----------------------------------------------------------

 -----------------------
 TS-92_opt_sqm_reopt.out
 -----------------------
 Symbolic Z-matrix:
 Charge =  0 Multiplicity = 1

                         Standard orientation:
 ---------------------------------------------------------------------
 Center     Atomic      Atomic             Coordinates (Angstroms)
 Number     Number       Type             X           Y           Z
 ---------------------------------------------------------------------
      1          6           0       -0.909020   -0.705500    0.186110
      2          6           0       -2.289320   -0.460541    0.151460
      3          8           0       -2.856941    0.639949    0.029800
      4          6           0        0.049879    0.412181    0.271100
      5          6           0       -0.802202    2.637490   -1.057400
      6          1           0       -0.191573    3.336161   -0.476010
      7          1           0       -0.914542    3.018480   -2.081060
      8          1           0       -1.784162    2.488650   -0.595970
      9          7           0       -0.141061    1.319971   -1.109450
     10          1           0       -0.703331    0.675560   -1.674450
     11          1           0        0.773259    1.397591   -1.562030
     12          6           0        1.494590   -0.073668    0.161560
     13          6           0        1.839220   -0.978328   -0.855490
     14          6           0        3.150360   -1.419127   -1.012710
     15          6           0        4.149170   -0.968087   -0.149360
     16          6           0        3.821390   -0.073137    0.865740
     17          6           0        2.507769    0.374112    1.016280
     18          1           0        1.058760   -1.352669   -1.522500
     19          1           0        3.391751   -2.126077   -1.809570
     20          1           0        5.177690   -1.316046   -0.266620
     21          1           0        4.592819    0.283524    1.551800
     22          1           0        2.281689    1.072762    1.821970
     23          6           0       -0.185231    1.368671    1.438840
     24          1           0       -1.244272    1.649210    1.471370
     25          1           0        0.045449    0.824371    2.364060
     26          1           0        0.436018    2.277291    1.410200
     27          1           0       -0.543329   -1.729180    0.236000
     28          8           0       -3.050700   -1.599731    0.221420
     29          6           0       -4.439650   -1.426712    0.098720
     30          1           0       -4.886989   -2.427032    0.171340
     31          1           0       -4.847110   -0.785182    0.896150
     32          1           0       -4.715300   -0.973062   -0.867400
 ---------------------------------------------------------------------

 SCF Done:  E(RwB97XD) =  -671.970647900     A.U. after   14 cycles

 The electronic state is 1-A.
 Alpha  occ. eigenvalues --  -19.24621 -19.17823 -14.54333 -10.36532 -10.36365
 Alpha  occ. eigenvalues --  -10.34730 -10.32112 -10.31934 -10.31140 -10.31125
 Alpha  occ. eigenvalues --  -10.31094 -10.31048 -10.31005 -10.28935 -10.22718
 Alpha  occ. eigenvalues --   -1.13995  -1.07626  -1.03759  -0.96408  -0.89826
 Alpha  occ. eigenvalues --   -0.84787  -0.83123  -0.80996  -0.79897  -0.75076
 Alpha  occ. eigenvalues --   -0.71461  -0.69854  -0.66553  -0.65817  -0.62394
 Alpha  occ. eigenvalues --   -0.60918  -0.58527  -0.57615  -0.55609  -0.54046
 Alpha  occ. eigenvalues --   -0.53588  -0.52958  -0.52139  -0.51674  -0.50916
 Alpha  occ. eigenvalues --   -0.49316  -0.48659  -0.46590  -0.46312  -0.46074
 Alpha  occ. eigenvalues --   -0.45525  -0.44039  -0.43313  -0.42337  -0.41807
 Alpha  occ. eigenvalues --   -0.39541  -0.34172  -0.34021  -0.33902  -0.30971
 Alpha  occ. eigenvalues --   -0.23597
 Alpha virt. eigenvalues --    0.04211   0.05020   0.11321   0.13412   0.14063
 Alpha virt. eigenvalues --    0.15162   0.16707   0.18042   0.18346   0.18436
 Alpha virt. eigenvalues --    0.19103   0.20534   0.21306   0.21874   0.22311

 Mulliken charges:
               1
     1  C   -0.307234
     2  C    0.269672
     3  O   -0.419619
     4  C   -0.099715
     5  C    0.026817
     6  H    0.067073
     7  H    0.072557
     8  H    0.102967
     9  N   -0.112877
    10  H    0.186825
    11  H    0.182567
    12  C   -0.002472
    13  C   -0.060062
    14  C   -0.018977
    15  C   -0.015144
    16  C   -0.022455
    17  C   -0.038080
    18  H    0.020911
    19  H    0.031513
    20  H    0.032354
    21  H    0.029937
    22  H    0.018388
    23  C    0.063153
    24  H    0.060980
    25  H    0.056350
    26  H    0.016883
    27  H    0.000969
    28  O   -0.373260
    29  C    0.151903
    30  H    0.033003
    31  H    0.026203
    32  H    0.018871
 Sum of Mulliken charges =  -0.00000

 Dipole moment (field-independent basis, Debye):
    X=              5.2331    Y=              4.0254    Z=             -3.3730  Tot=              7.4140
 Quadrupole moment (field-independent basis, Debye-Ang):
   XX=            -92.4970   YY=            -85.3907   ZZ=            -82.7111
   XY=              0.2289   XZ=              2.1514   YZ=             -1.0302

  Exact polarizability:     214.990      -5.105     142.542       4.724      16.508     130.928
 Approx polarizability:     183.487      -7.311     145.880       5.586      18.329     138.917

 ******    1 imaginary frequencies (negative Signs) ******

                      1                      2                      3
                      A                      A                      A
 Frequencies --    -77.1119                49.4277                73.3674
 Red. masses --      2.7881                 3.8036                 3.0848
 Frc consts  --      0.0098                 0.0055                 0.0098
 IR Inten    --      2.1372                 0.4997                 5.4115

                      4                      5                      6
                      A                      A                      A
 Frequencies --     84.7301               102.0606               118.6534
 Red. masses --      4.4219                 1.8880                 2.1175
 Frc consts  --      0.0187                 0.0116                 0.0176
 IR Inten    --      5.2669                 7.6343                 4.0208

                      7                      8                      9
                      A                      A                      A
 Frequencies --    137.1038               160.0947               214.8841
 Red. masses --      3.6195                 2.1722                 3.7449
 Frc consts  --      0.0401                 0.0328                 0.1019
 IR Inten    --      1.1823                 1.7965                20.2596

                     10                     11                     12
                      A                      A                      A
 Frequencies --    236.1203               264.7564               284.0977
 Red. masses --      3.4795                 1.3413                 3.5996
 Frc consts  --      0.1143                 0.0554                 0.1712
 IR Inten    --     36.8162                 1.2578                 1.3865

                     13                     14                     15
                      A                      A                      A
 Frequencies --    297.9872               319.8457               356.7599
 Red. masses --      3.2016                 3.7167                 3.0821
 Frc consts  --      0.1675                 0.2240                 0.2311
 IR Inten    --     21.5368                11.9513                36.4573

                     16                     17                     18
                      A                      A                      A
 Frequencies --    374.6280               392.8007               402.9091
 Red. masses --      3.8698                 2.1042                 1.3159
 Frc consts  --      0.3200                 0.1913                 0.1259
 IR Inten    --     19.3700                10.1814                 6.2356

                     19                     20                     21
                      A                      A                      A
 Frequencies --    426.0208               460.7901               545.2958
 Red. masses --      2.6273                 2.9909                 2.9004
 Frc consts  --      0.2809                 0.3742                 0.5081
 IR Inten    --      0.1249                 8.5381                20.9801

                     22                     23                     24
                      A                      A                      A
 Frequencies --    567.6103               604.1037               623.2674
 Red. masses --      1.8440                 3.1770                 2.0181
 Frc consts  --      0.3500                 0.6831                 0.4619
 IR Inten    --     13.4485                29.4342               126.3866

                     25                     26                     27
                      A                      A                      A
 Frequencies --    636.1803               726.7540               730.7087
 Red. masses --      6.0247                 4.6905                 1.6571
 Frc consts  --      1.4366                 1.4596                 0.5213
 IR Inten    --      3.1830                 7.9446                39.7436

                     28                     29                     30
                      A                      A                      A
 Frequencies --    755.2927               789.6583               808.3312
 Red. masses --      2.0587                 7.2006                 2.1998
 Frc consts  --      0.6920                 2.6454                 0.8469
 IR Inten    --     61.0260                25.2874                 7.7290

                     31                     32                     33
                      A                      A                      A
 Frequencies --    842.7401               880.0133               941.6201
 Red. masses --      1.8869                 1.2460                 2.8264
 Frc consts  --      0.7896                 0.5685                 1.4765
 IR Inten    --     21.5498                 0.1388                64.3513

                     34                     35                     36
                      A                      A                      A
 Frequencies --    969.0038               989.0809              1019.4500
 Red. masses --      1.5302                 3.0427                 5.2850
 Frc consts  --      0.8466                 1.7538                 3.2362
 IR Inten    --      2.0450                38.5249                 2.0634

                     37                     38                     39
                      A                      A                      A
 Frequencies --   1023.4751              1044.0827              1054.0323
 Red. masses --      1.3915                 1.3397                 1.8398
 Frc consts  --      0.8588                 0.8605                 1.2043
 IR Inten    --      0.6005                 0.3312                26.5321

                     40                     41                     42
                      A                      A                      A
 Frequencies --   1061.0576              1067.3220              1084.9620
 Red. masses --      2.0800                 1.9698                 1.3277
 Frc consts  --      1.3797                 1.3221                 0.9208
 IR Inten    --     12.3463                21.7919                48.2740

                     43                     44                     45
                      A                      A                      A
 Frequencies --   1097.8410              1117.9041              1141.5022
 Red. masses --      1.8785                 1.5987                 2.3065
 Frc consts  --      1.3340                 1.1772                 1.7707
 IR Inten    --     15.2756                19.8180                57.9161

                     46                     47                     48
                      A                      A                      A
 Frequencies --   1151.6201              1177.0623              1182.7322
 Red. masses --      1.7468                 1.0921                 1.2936
 Frc consts  --      1.3649                 0.8915                 1.0662
 IR Inten    --      6.7910                 1.2817                 1.3898

                     49                     50                     51
                      A                      A                      A
 Frequencies --   1204.6912              1208.1706              1213.8586
 Red. masses --      1.6723                 1.4061                 1.4539
 Frc consts  --      1.4299                 1.2092                 1.2622
 IR Inten    --    162.3847               187.6012               143.5387

                     52                     53                     54
                      A                      A                      A
 Frequencies --   1264.7752              1301.7701              1319.1418
 Red. masses --      3.0597                 2.9934                 1.4434
 Frc consts  --      2.8837                 2.9888                 1.4798
 IR Inten    --     41.6901                74.5706                81.0412

                     55                     56                     57
                      A                      A                      A
 Frequencies --   1340.3002              1352.5561              1373.2721
 Red. masses --      1.4445                 1.4067                 3.5884
 Frc consts  --      1.5289                 1.5163                 3.9872
 IR Inten    --     10.8997                28.0133                 3.6447

                     58                     59                     60
                      A                      A                      A
 Frequencies --   1395.0873              1428.7963              1441.4660
 Red. masses --      1.3976                 1.1727                 1.4391
 Frc consts  --      1.6027                 1.4106                 1.7618
 IR Inten    --     22.7788                21.3717               215.7241

                     61                     62                     63
                      A                      A                      A
 Frequencies --   1459.7029              1464.1496              1480.9893
 Red. masses --      1.0426                 1.0821                 1.1162
 Frc consts  --      1.3088                 1.3668                 1.4424
 IR Inten    --      5.8719                 5.7441               183.1792

                     64                     65                     66
                      A                      A                      A
 Frequencies --   1482.9857              1485.4658              1495.5518
 Red. masses --      1.1186                 1.1524                 1.8945
 Frc consts  --      1.4495                 1.4982                 2.4965
 IR Inten    --     54.2799                16.8371                17.4413

                     67                     68                     69
                      A                      A                      A
 Frequencies --   1510.1162              1515.2036              1545.0391
 Red. masses --      1.0481                 1.9148                 2.4586
 Frc consts  --      1.4082                 2.5900                 3.4579
 IR Inten    --      4.5214               315.9133                 9.5540

                     70                     71                     72
                      A                      A                      A
 Frequencies --   1606.3688              1670.9932              1696.2945
 Red. masses --      1.0940                 6.1904                 6.4084
 Frc consts  --      1.6633                10.1840                10.8643
 IR Inten    --     22.0593                10.7900                87.0264

                     73                     74                     75
                      A                      A                      A
 Frequencies --   1707.6143              3037.2194              3059.1820
 Red. masses --      8.3028                 1.0329                 1.0416
 Frc consts  --     14.2645                 5.6137                 5.7433
 IR Inten    --    597.6886                89.3907                33.7203

                     76                     77                     78
                      A                      A                      A
 Frequencies --   3086.2591              3121.5513              3159.6670
 Red. masses --      1.0342                 1.1061                 1.0999
 Frc consts  --      5.8041                 6.3502                 6.4694
 IR Inten    --     39.8928                42.9967                17.1536

                     79                     80                     81
                      A                      A                      A
 Frequencies --   3163.9747              3195.7071              3198.8952
 Red. masses --      1.1060                 1.1047                 1.1060
 Frc consts  --      6.5232                 6.6471                 6.6684
 IR Inten    --     32.3302                 2.7605                 7.6151

                     82                     83                     84
                      A                      A                      A
 Frequencies --   3201.5638              3208.5353              3216.9066
 Red. masses --      1.0869                 1.0902                 1.0950
 Frc consts  --      6.5641                 6.6126                 6.6764
 IR Inten    --      1.0658                 1.4054                12.8859

                     85                     86                     87
                      A                      A                      A
 Frequencies --   3227.1349              3231.4857              3242.8562
 Red. masses --      1.0997                 1.1100                 1.0943
 Frc consts  --      6.7477                 6.8296                 6.7804
 IR Inten    --     17.4342                 8.3243                 4.8049

                     88                     89                     90
                      A                      A                      A
 Frequencies --   3253.2065              3471.0371              3557.9943
 Red. masses --      1.0911                 1.0560                 1.0952
 Frc consts  --      6.8035                 7.4957                 8.1691
 IR Inten    --      2.9973                28.3489                73.8671

 - Thermochemistry -
 -------------------
 Temperature   298.150 Kelvin.  Pressure   1.00000 Atm.
 Atom     1 has atomic number  6 and mass  12.00000

 Molecular mass:   207.12593 amu.
 Principal axes and moments of inertia in atomic units:
                           1         2         3
     Eigenvalues --  1618.377335423.673346083.74356
           X            1.00000   0.00106   0.00228
           Y           -0.00110   0.99988   0.01539
           Z           -0.00227  -0.01539   0.99988
 This molecule is an asymmetric top.
 Rotational symmetry number  1.
 Warning -- assumption of classical behavior for rotation
           may cause significant error
 Rotational temperatures (Kelvin)      0.05352     0.01597     0.01424
 Rotational constants (GHZ):           1.11515     0.33275     0.29665
    1 imaginary frequencies ignored.
 Zero-point vibrational energy     723664.6 (Joules/Mol)
                                  172.96000 (Kcal/Mol)
 Warning -- explicit consideration of  22 degrees of freedom as
           vibrations may cause significant error
 Vibrational temperatures:     71.12   105.56   121.91   146.84   170.72
          (Kelvin)            197.26   230.34   309.17   339.72   380.93
                              408.75   428.74   460.19   513.30   539.01
                              565.15   579.70   612.95   662.97   784.56
                              816.66   869.17   896.74   915.32  1045.64
                             1051.33  1086.70  1136.14  1163.01  1212.52
                             1266.14  1354.78  1394.18  1423.07  1466.76
                             1472.55  1502.20  1516.52  1526.63  1535.64
                             1561.02  1579.55  1608.41  1642.37  1656.92
                             1693.53  1701.69  1733.28  1738.29  1746.47
                             1819.73  1872.96  1897.95  1928.39  1946.03
                             1975.83  2007.22  2055.72  2073.95  2100.19
                             2106.58  2130.81  2133.69  2137.25  2151.77
                             2172.72  2180.04  2222.97  2311.21  2404.19
                             2440.59  2456.88  4369.88  4401.48  4440.44
                             4491.22  4546.06  4552.25  4597.91  4602.50
                             4606.34  4616.37  4628.41  4643.13  4649.39
                             4665.75  4680.64  4994.05  5119.16

 Zero-point correction=                           0.275629 (Hartree/Particle)
 Thermal correction to Energy=                    0.290238
 Thermal correction to Enthalpy=                  0.291183
 Thermal correction to Gibbs Free Energy=         0.234263
 Sum of electronic and zero-point Energies=           -671.695019
 Sum of electronic and thermal Energies=              -671.680410
 Sum of electronic and thermal Enthalpies=            -671.679465
 Sum of electronic and thermal Free Energies=         -671.736385

                     E (Thermal)             CV                S
                      KCal/Mol        Cal/Mol-Kelvin    Cal/Mol-Kelvin
 Total                  182.127             56.173            119.797
 Electronic               0.000              0.000              0.000
 Translational            0.889              2.981             41.888
 Rotational               0.889              2.981             32.346
 Vibrational            180.350             50.212             45.562
 Vibration     1          0.595              1.978              4.840
 Vibration     2          0.599              1.967              4.061
 Vibration     3          0.601              1.960              3.778
 Vibration     4          0.604              1.948              3.415
 Vibration     5          0.609              1.934              3.122
 Vibration     6          0.614              1.916              2.844
 Vibration     7          0.622              1.891              2.549
 Vibration     8          0.645              1.818              2.002
 Vibration     9          0.655              1.785              1.832
 Vibration    10          0.671              1.738              1.630
 Vibration    11          0.683              1.703              1.509
 Vibration    12          0.691              1.677              1.428
 Vibration    13          0.706              1.636              1.311
 Vibration    14          0.732              1.561              1.136
 Vibration    15          0.746              1.524              1.061
 Vibration    16          0.760              1.486              0.989
 Vibration    17          0.768              1.464              0.952
 Vibration    18          0.788              1.414              0.872
 Vibration    19          0.819              1.337              0.764
 Vibration    20          0.900              1.150              0.554
 Vibration    21          0.924              1.101              0.509
 Vibration    22          0.963              1.023              0.443

 Normal termination of Gaussian 16 at Sat Dec 30 21:07:16 2023.
