 Gaussian 16, Revision C.01,
 Gaussian 16:  ES64L-G16RevC.01  3-Jul-2019

 ----------------------------------------------------------------------
 # wb97xd def2svp geom=allchk scrf=(iefpcm,solvent=toluene) opt=(readfc
 ,ts,noeigen,maxcycles=50,maxstep=10)
 ----------------------------------------------------------------------

 Structure from the checkpoint file:  "TS-92_opt_sqm_re.chk"
 ---------------------
 TS-92_opt_sqm_re3.out
 ---------------------
 Charge =  0 Multiplicity = 1

 SCF Done:  E(RwB97XD) =  -671.972050580     A.U. after   14 cycles
 SCF Done:  E(RwB97XD) =  -671.971853917     A.U. after   12 cycles
 SCF Done:  E(RwB97XD) =  -671.972034635     A.U. after   12 cycles
 SCF Done:  E(RwB97XD) =  -671.972006951     A.U. after   12 cycles
 SCF Done:  E(RwB97XD) =  -671.971917188     A.U. after   12 cycles
 SCF Done:  E(RwB97XD) =  -671.971849372     A.U. after   12 cycles
 SCF Done:  E(RwB97XD) =  -671.971799978     A.U. after   12 cycles
 SCF Done:  E(RwB97XD) =  -671.971713258     A.U. after   12 cycles
 SCF Done:  E(RwB97XD) =  -671.971971355     A.U. after   12 cycles
 SCF Done:  E(RwB97XD) =  -671.972075192     A.U. after   12 cycles
 SCF Done:  E(RwB97XD) =  -671.970647907     A.U. after   10 cycles
 SCF Done:  E(RwB97XD) =  -671.970647897     A.U. after   10 cycles
 SCF Done:  E(RwB97XD) =  -671.970648056     A.U. after    8 cycles
 SCF Done:  E(RwB97XD) =  -671.970528389     A.U. after   12 cycles
 SCF Done:  E(RwB97XD) =  -671.970647031     A.U. after   12 cycles
 SCF Done:  E(RwB97XD) =  -671.970646612     A.U. after   10 cycles
 SCF Done:  E(RwB97XD) =  -671.970648007     A.U. after   10 cycles
 SCF Done:  E(RwB97XD) =  -671.970647596     A.U. after   10 cycles
 SCF Done:  E(RwB97XD) =  -671.970648004     A.U. after    9 cycles
 SCF Done:  E(RwB97XD) =  -671.970647951     A.U. after    8 cycles
 Optimization completed.
    -- Stationary point found.

                         Standard orientation:
 ---------------------------------------------------------------------
 Center     Atomic      Atomic             Coordinates (Angstroms)
 Number     Number       Type             X           Y           Z
 ---------------------------------------------------------------------
      1          6           0       -0.909082   -0.705539    0.186744
      2          6           0       -2.289307   -0.460549    0.151515
      3          8           0       -2.856694    0.639968    0.028881
      4          6           0        0.049866    0.412185    0.271102
      5          6           0       -0.801915    2.637299   -1.057167
      6          1           0       -0.190508    3.335745   -0.476274
      7          1           0       -0.914770    3.018048   -2.080856
      8          1           0       -1.783642    2.488886   -0.595225
      9          7           0       -0.141359    1.319487   -1.109433
     10          1           0       -0.704062    0.675326   -1.674357
     11          1           0        0.772860    1.396906   -1.562255
     12          6           0        1.494550   -0.073730    0.161483
     13          6           0        1.839159   -0.978320   -0.855565
     14          6           0        3.150386   -1.418960   -1.012907
     15          6           0        4.149134   -0.968010   -0.149489
     16          6           0        3.821304   -0.073194    0.865754
     17          6           0        2.507722    0.374027    1.016277
     18          1           0        1.058704   -1.352858   -1.522434
     19          1           0        3.391788   -2.125709   -1.809937
     20          1           0        5.177688   -1.315903   -0.266736
     21          1           0        4.592739    0.283317    1.551895
     22          1           0        2.281539    1.072668    1.821995
     23          6           0       -0.184946    1.368838    1.438786
     24          1           0       -1.243886    1.649654    1.471348
     25          1           0        0.045480    0.824492    2.364032
     26          1           0        0.436629    2.277263    1.410129
     27          1           0       -0.543329   -1.729164    0.237310
     28          8           0       -3.050897   -1.599579    0.222047
     29          6           0       -4.439752   -1.426390    0.098615
     30          1           0       -4.715041   -0.974845   -0.868640
     31          1           0       -4.887444   -2.426376    0.173276
     32          1           0       -4.847224   -0.782908    0.894458
 ---------------------------------------------------------------------

 The electronic state is 1-A.
 Alpha  occ. eigenvalues --  -19.24620 -19.17821 -14.54337 -10.36532 -10.36362
 Alpha  occ. eigenvalues --  -10.34730 -10.32111 -10.31934 -10.31140 -10.31126
 Alpha  occ. eigenvalues --  -10.31094 -10.31049 -10.31005 -10.28936 -10.22716
 Alpha  occ. eigenvalues --   -1.13994  -1.07631  -1.03757  -0.96408  -0.89827
 Alpha  occ. eigenvalues --   -0.84787  -0.83123  -0.80998  -0.79896  -0.75076
 Alpha  occ. eigenvalues --   -0.71462  -0.69854  -0.66554  -0.65820  -0.62397
 Alpha  occ. eigenvalues --   -0.60918  -0.58526  -0.57616  -0.55609  -0.54046
 Alpha  occ. eigenvalues --   -0.53587  -0.52957  -0.52139  -0.51676  -0.50916
 Alpha  occ. eigenvalues --   -0.49318  -0.48658  -0.46590  -0.46312  -0.46076
 Alpha  occ. eigenvalues --   -0.45526  -0.44039  -0.43312  -0.42337  -0.41807
 Alpha  occ. eigenvalues --   -0.39539  -0.34172  -0.34020  -0.33903  -0.30970
 Alpha  occ. eigenvalues --   -0.23595
 Alpha virt. eigenvalues --    0.04212   0.05020   0.11321   0.13416   0.14063
 Alpha virt. eigenvalues --    0.15162   0.16707   0.18041   0.18345   0.18437
 Alpha virt. eigenvalues --    0.19102   0.20534   0.21306   0.21871   0.22311

 Mulliken charges:
               1
     1  C   -0.307230
     2  C    0.269654
     3  O   -0.419723
     4  C   -0.099744
     5  C    0.026850
     6  H    0.067083
     7  H    0.072562
     8  H    0.102968
     9  N   -0.112831
    10  H    0.186898
    11  H    0.182583
    12  C   -0.002495
    13  C   -0.060097
    14  C   -0.018967
    15  C   -0.015144
    16  C   -0.022465
    17  C   -0.038051
    18  H    0.020899
    19  H    0.031513
    20  H    0.032359
    21  H    0.029940
    22  H    0.018411
    23  C    0.063213
    24  H    0.060944
    25  H    0.056350
    26  H    0.016893
    27  H    0.000939
    28  O   -0.373262
    29  C    0.151899
    30  H    0.018836
    31  H    0.032994
    32  H    0.026221
 Sum of Mulliken charges =  -0.00000

 Dipole moment (field-independent basis, Debye):
    X=              5.2339    Y=              4.0259    Z=             -3.3733  Tot=              7.4149
 Quadrupole moment (field-independent basis, Debye-Ang):
   XX=            -92.4998   YY=            -85.3948   ZZ=            -82.7091
   XY=              0.2258   XZ=              2.1501   YZ=             -1.0259

 Normal termination of Gaussian 16 at Sun Dec 24 19:45:05 2023.
