 Gaussian 16, Revision C.01,
 Gaussian 16:  ES64L-G16RevC.01  3-Jul-2019

 -----------------------------------------------------------
 # wb97xd def2svp scrf=(iefpcm,solvent=toluene) freq=noraman
 -----------------------------------------------------------

 -----------------
 TS-92_opt_dft.out
 -----------------
 Symbolic Z-matrix:
 Charge =  0 Multiplicity = 1

                         Standard orientation:
 ---------------------------------------------------------------------
 Center     Atomic      Atomic             Coordinates (Angstroms)
 Number     Number       Type             X           Y           Z
 ---------------------------------------------------------------------
      1          6           0       -0.909190   -0.705531    0.186530
      2          6           0       -2.289430   -0.460481    0.151460
      3          8           0       -2.856800    0.640049    0.028830
      4          6           0        0.049850    0.412059    0.271130
      5          6           0       -0.801510    2.637519   -1.057130
      6          1           0       -0.190280    3.335749   -0.475800
      7          1           0       -0.913870    3.018549   -2.080760
      8          1           0       -1.783470    2.489099   -0.595600
      9          7           0       -0.141110    1.319629   -1.109430
     10          1           0       -0.703740    0.675579   -1.674490
     11          1           0        0.773210    1.396989   -1.562110
     12          6           0        1.494520   -0.073871    0.161540
     13          6           0        1.839110   -0.978631   -0.855370
     14          6           0        3.150351   -1.419221   -1.012720
     15          6           0        4.149140   -0.968030   -0.149480
     16          6           0        3.821340   -0.073040    0.865620
     17          6           0        2.507730    0.374089    1.016180
     18          1           0        1.058631   -1.353301   -1.522140
     19          1           0        3.391731   -2.126120   -1.809630
     20          1           0        5.177711   -1.315880   -0.266750
     21          1           0        4.592810    0.283680    1.551600
     22          1           0        2.281560    1.072819    1.821830
     23          6           0       -0.185030    1.368609    1.438880
     24          1           0       -1.243990    1.649359    1.471440
     25          1           0        0.045440    0.824219    2.364090
     26          1           0        0.436490    2.277079    1.410310
     27          1           0       -0.543519   -1.729191    0.237020
     28          8           0       -3.051049   -1.599481    0.222110
     29          6           0       -4.439889   -1.426271    0.098500
     30          1           0       -4.887569   -2.426301    0.172760
     31          1           0       -4.847520   -0.783061    0.894490
     32          1           0       -4.715030   -0.974411   -0.868640
 ---------------------------------------------------------------------

 SCF Done:  E(RwB97XD) =  -671.970647932     A.U. after   14 cycles

 The electronic state is 1-A.
 Alpha  occ. eigenvalues --  -19.24621 -19.17821 -14.54335 -10.36532 -10.36363
 Alpha  occ. eigenvalues --  -10.34730 -10.32112 -10.31934 -10.31140 -10.31126
 Alpha  occ. eigenvalues --  -10.31095 -10.31049 -10.31005 -10.28936 -10.22717
 Alpha  occ. eigenvalues --   -1.13994  -1.07628  -1.03757  -0.96408  -0.89827
 Alpha  occ. eigenvalues --   -0.84787  -0.83123  -0.80997  -0.79896  -0.75076
 Alpha  occ. eigenvalues --   -0.71462  -0.69854  -0.66553  -0.65819  -0.62396
 Alpha  occ. eigenvalues --   -0.60918  -0.58526  -0.57616  -0.55609  -0.54046
 Alpha  occ. eigenvalues --   -0.53588  -0.52957  -0.52139  -0.51675  -0.50916
 Alpha  occ. eigenvalues --   -0.49318  -0.48658  -0.46590  -0.46313  -0.46076
 Alpha  occ. eigenvalues --   -0.45526  -0.44040  -0.43311  -0.42337  -0.41807
 Alpha  occ. eigenvalues --   -0.39540  -0.34172  -0.34021  -0.33903  -0.30970
 Alpha  occ. eigenvalues --   -0.23595
 Alpha virt. eigenvalues --    0.04212   0.05020   0.11321   0.13414   0.14063
 Alpha virt. eigenvalues --    0.15162   0.16707   0.18041   0.18346   0.18437
 Alpha virt. eigenvalues --    0.19102   0.20533   0.21305   0.21872   0.22311

 Mulliken charges:
               1
     1  C   -0.307229
     2  C    0.269660
     3  O   -0.419699
     4  C   -0.099700
     5  C    0.026837
     6  H    0.067089
     7  H    0.072558
     8  H    0.102962
     9  N   -0.112861
    10  H    0.186867
    11  H    0.182584
    12  C   -0.002511
    13  C   -0.060085
    14  C   -0.018967
    15  C   -0.015145
    16  C   -0.022461
    17  C   -0.038063
    18  H    0.020909
    19  H    0.031516
    20  H    0.032361
    21  H    0.029937
    22  H    0.018413
    23  C    0.063189
    24  H    0.060952
    25  H    0.056350
    26  H    0.016894
    27  H    0.000942
    28  O   -0.373254
    29  C    0.151896
    30  H    0.032996
    31  H    0.026220
    32  H    0.018845
 Sum of Mulliken charges =  -0.00000

 Dipole moment (field-independent basis, Debye):
    X=              5.2347    Y=              4.0256    Z=             -3.3728  Tot=              7.4151
 Quadrupole moment (field-independent basis, Debye-Ang):
   XX=            -92.4997   YY=            -85.3925   ZZ=            -82.7110
   XY=              0.2289   XZ=              2.1489   YZ=             -1.0251

  Exact polarizability:     214.984      -5.103     142.536       4.729      16.508     130.923
 Approx polarizability:     183.485      -7.306     145.875       5.591      18.324     138.914

 ******    1 imaginary frequencies (negative Signs) ******

                      1                      2                      3
                      A                      A                      A
 Frequencies --    -75.5365                49.5086                73.3656
 Red. masses --      2.8107                 3.8062                 3.0785
 Frc consts  --      0.0094                 0.0055                 0.0098
 IR Inten    --      2.1171                 0.5049                 5.3572

                      4                      5                      6
                      A                      A                      A
 Frequencies --     84.7239               102.2916               118.4576
 Red. masses --      4.4210                 1.8650                 2.1233
 Frc consts  --      0.0187                 0.0115                 0.0176
 IR Inten    --      5.2514                 7.5695                 4.0837

                      7                      8                      9
                      A                      A                      A
 Frequencies --    137.2763               159.9202               215.0114
 Red. masses --      3.6211                 2.1894                 3.7371
 Frc consts  --      0.0402                 0.0330                 0.1018
 IR Inten    --      1.2013                 1.7928                19.9644

                     10                     11                     12
                      A                      A                      A
 Frequencies --    236.3467               265.1413               284.3630
 Red. masses --      3.4817                 1.3529                 3.5186
 Frc consts  --      0.1146                 0.0560                 0.1676
 IR Inten    --     36.8401                 1.2427                 1.3635

                     13                     14                     15
                      A                      A                      A
 Frequencies --    298.2210               320.0829               356.9724
 Red. masses --      3.2245                 3.7000                 3.0825
 Frc consts  --      0.1690                 0.2233                 0.2314
 IR Inten    --     21.7719                12.1819                36.1556

                     16                     17                     18
                      A                      A                      A
 Frequencies --    374.6556               392.9482               403.2190
 Red. masses --      3.8734                 2.1323                 1.3059
 Frc consts  --      0.3203                 0.1940                 0.1251
 IR Inten    --     19.1364                10.5422                 6.0178

                     19                     20                     21
                      A                      A                      A
 Frequencies --    426.0603               460.8022               545.3489
 Red. masses --      2.6198                 2.9898                 2.8963
 Frc consts  --      0.2802                 0.3740                 0.5075
 IR Inten    --      0.1277                 8.5183                20.9249

                     22                     23                     24
                      A                      A                      A
 Frequencies --    567.5819               604.2552               623.3046
 Red. masses --      1.8450                 3.1798                 2.0204
 Frc consts  --      0.3502                 0.6841                 0.4625
 IR Inten    --     13.4194                29.6275               126.0804

                     25                     26                     27
                      A                      A                      A
 Frequencies --    636.1847               726.7412               730.7552
 Red. masses --      6.0258                 4.7126                 1.6543
 Frc consts  --      1.4369                 1.4665                 0.5205
 IR Inten    --      3.1734                 7.9454                39.8031

                     28                     29                     30
                      A                      A                      A
 Frequencies --    755.6492               789.6695               808.3571
 Red. masses --      2.0632                 7.1751                 2.2000
 Frc consts  --      0.6941                 2.6362                 0.8470
 IR Inten    --     61.0038                25.1816                 7.7201

                     31                     32                     33
                      A                      A                      A
 Frequencies --    842.9442               880.0734               941.6855
 Red. masses --      1.8801                 1.2460                 2.8272
 Frc consts  --      0.7871                 0.5686                 1.4771
 IR Inten    --     21.6611                 0.1391                64.3708

                     34                     35                     36
                      A                      A                      A
 Frequencies --    969.0876               989.0831              1019.4597
 Red. masses --      1.5303                 3.0413                 5.2827
 Frc consts  --      0.8467                 1.7530                 3.2348
 IR Inten    --      2.0435                38.4874                 2.0581

                     37                     38                     39
                      A                      A                      A
 Frequencies --   1023.5118              1044.1057              1054.0511
 Red. masses --      1.3917                 1.3397                 1.8394
 Frc consts  --      0.8590                 0.8605                 1.2040
 IR Inten    --      0.6024                 0.3362                26.5498

                     40                     41                     42
                      A                      A                      A
 Frequencies --   1061.0934              1067.3670              1085.0060
 Red. masses --      2.0809                 1.9724                 1.3275
 Frc consts  --      1.3804                 1.3240                 0.9208
 IR Inten    --     12.3172                21.7901                48.3213

                     43                     44                     45
                      A                      A                      A
 Frequencies --   1097.8860              1118.0255              1141.5521
 Red. masses --      1.8776                 1.6007                 2.3052
 Frc consts  --      1.3334                 1.1789                 1.7699
 IR Inten    --     15.1263                19.8875                57.8208

                     46                     47                     48
                      A                      A                      A
 Frequencies --   1151.7095              1177.0874              1182.6960
 Red. masses --      1.7444                 1.0922                 1.2935
 Frc consts  --      1.3633                 0.8916                 1.0660
 IR Inten    --      6.8400                 1.3120                 1.3665

                     49                     50                     51
                      A                      A                      A
 Frequencies --   1204.6661              1208.2588              1214.0109
 Red. masses --      1.6690                 1.4302                 1.4332
 Frc consts  --      1.4270                 1.2302                 1.2446
 IR Inten    --    158.0810               200.9509               134.5327

                     52                     53                     54
                      A                      A                      A
 Frequencies --   1264.8683              1301.8100              1319.3173
 Red. masses --      3.0612                 2.9923                 1.4436
 Frc consts  --      2.8856                 2.9878                 1.4805
 IR Inten    --     41.6614                74.4403                80.8991

                     55                     56                     57
                      A                      A                      A
 Frequencies --   1340.4719              1352.6545              1373.3659
 Red. masses --      1.4458                 1.4073                 3.5685
 Frc consts  --      1.5307                 1.5171                 3.9656
 IR Inten    --     10.9858                28.0673                 3.6000

                     58                     59                     60
                      A                      A                      A
 Frequencies --   1395.1119              1428.7475              1441.4568
 Red. masses --      1.3970                 1.1724                 1.4384
 Frc consts  --      1.6020                 1.4101                 1.7610
 IR Inten    --     22.7882                21.3460               214.9395

                     61                     62                     63
                      A                      A                      A
 Frequencies --   1459.6483              1464.2501              1481.0887
 Red. masses --      1.0426                 1.0827                 1.1179
 Frc consts  --      1.3088                 1.3676                 1.4448
 IR Inten    --      5.9706                 5.9176               188.3961

                     64                     65                     66
                      A                      A                      A
 Frequencies --   1483.0327              1485.5920              1495.6281
 Red. masses --      1.1128                 1.1605                 1.8835
 Frc consts  --      1.4421                 1.5091                 2.4823
 IR Inten    --     49.2566                16.7568                17.5535

                     67                     68                     69
                      A                      A                      A
 Frequencies --   1510.0054              1515.2386              1545.1694
 Red. masses --      1.0478                 1.9172                 2.4562
 Frc consts  --      1.4076                 2.5935                 3.4551
 IR Inten    --      4.5248               315.9183                 9.5326

                     70                     71                     72
                      A                      A                      A
 Frequencies --   1606.7765              1671.0222              1696.3313
 Red. masses --      1.0941                 6.1879                 6.4041
 Frc consts  --      1.6643                10.1802                10.8574
 IR Inten    --     22.1743                10.8515                87.6112

                     73                     74                     75
                      A                      A                      A
 Frequencies --   1707.5955              3037.1424              3059.0826
 Red. masses --      8.2921                 1.0329                 1.0417
 Frc consts  --     14.2457                 5.6136                 5.7433
 IR Inten    --    597.1079                89.3947                33.7790

                     76                     77                     78
                      A                      A                      A
 Frequencies --   3086.3207              3121.4055              3159.6652
 Red. masses --      1.0342                 1.1061                 1.0998
 Frc consts  --      5.8042                 6.3495                 6.4691
 IR Inten    --     39.8373                43.0255                17.0948

                     79                     80                     81
                      A                      A                      A
 Frequencies --   3164.1006              3195.9294              3198.9482
 Red. masses --      1.1060                 1.1047                 1.1060
 Frc consts  --      6.5236                 6.6482                 6.6684
 IR Inten    --     32.3629                 2.8730                 7.4648

                     82                     83                     84
                      A                      A                      A
 Frequencies --   3201.6038              3208.5745              3216.9233
 Red. masses --      1.0869                 1.0902                 1.0950
 Frc consts  --      6.5640                 6.6129                 6.6765
 IR Inten    --      1.0260                 1.4601                12.8673

                     85                     86                     87
                      A                      A                      A
 Frequencies --   3227.0682              3231.5914              3242.5587
 Red. masses --      1.0997                 1.1100                 1.0944
 Frc consts  --      6.7474                 6.8299                 6.7794
 IR Inten    --     17.4032                 8.3686                 4.8358

                     88                     89                     90
                      A                      A                      A
 Frequencies --   3253.1768              3471.0214              3557.8328
 Red. masses --      1.0911                 1.0559                 1.0953
 Frc consts  --      6.8034                 7.4953                 8.1686
 IR Inten    --      3.0042                28.3022                73.9624

 - Thermochemistry -
 -------------------
 Temperature   298.150 Kelvin.  Pressure   1.00000 Atm.
 Atom     1 has atomic number  6 and mass  12.00000

 Molecular mass:   207.12593 amu.
 Principal axes and moments of inertia in atomic units:
                           1         2         3
     Eigenvalues --  1618.212585423.733916083.71181
           X            1.00000   0.00106   0.00228
           Y           -0.00110   0.99988   0.01541
           Z           -0.00227  -0.01541   0.99988
 This molecule is an asymmetric top.
 Rotational symmetry number  1.
 Warning -- assumption of classical behavior for rotation
           may cause significant error
 Rotational temperatures (Kelvin)      0.05352     0.01597     0.01424
 Rotational constants (GHZ):           1.11527     0.33275     0.29665
    1 imaginary frequencies ignored.
 Zero-point vibrational energy     723697.1 (Joules/Mol)
                                  172.96775 (Kcal/Mol)
 Warning -- explicit consideration of  22 degrees of freedom as
           vibrations may cause significant error
 Vibrational temperatures:     71.23   105.56   121.90   147.17   170.43
          (Kelvin)            197.51   230.09   309.35   340.05   381.48
                              409.13   429.07   460.53   513.60   539.05
                              565.36   580.14   613.01   662.99   784.64
                              816.62   869.39   896.80   915.33  1045.62
                             1051.39  1087.21  1136.16  1163.05  1212.81
                             1266.23  1354.88  1394.30  1423.07  1466.78
                             1472.61  1502.24  1516.54  1526.68  1535.70
                             1561.08  1579.61  1608.59  1642.44  1657.05
                             1693.57  1701.64  1733.25  1738.41  1746.69
                             1819.86  1873.01  1898.20  1928.64  1946.17
                             1975.97  2007.25  2055.65  2073.93  2100.11
                             2106.73  2130.96  2133.75  2137.44  2151.88
                             2172.56  2180.09  2223.15  2311.79  2404.23
                             2440.64  2456.85  4369.77  4401.34  4440.53
                             4491.01  4546.05  4552.44  4598.23  4602.57
                             4606.39  4616.42  4628.44  4643.03  4649.54
                             4665.32  4680.60  4994.03  5118.93

 Zero-point correction=                           0.275642 (Hartree/Particle)
 Thermal correction to Energy=                    0.290247
 Thermal correction to Enthalpy=                  0.291191
 Thermal correction to Gibbs Free Energy=         0.234281
 Sum of electronic and zero-point Energies=           -671.695006
 Sum of electronic and thermal Energies=              -671.680401
 Sum of electronic and thermal Enthalpies=            -671.679456
 Sum of electronic and thermal Free Energies=         -671.736367

                     E (Thermal)             CV                S
                      KCal/Mol        Cal/Mol-Kelvin    Cal/Mol-Kelvin
 Total                  182.133             56.166            119.778
 Electronic               0.000              0.000              0.000
 Translational            0.889              2.981             41.888
 Rotational               0.889              2.981             32.346
 Vibrational            180.355             50.205             45.544
 Vibration     1          0.595              1.978              4.837
 Vibration     2          0.599              1.967              4.061
 Vibration     3          0.601              1.960              3.778
 Vibration     4          0.604              1.947              3.410
 Vibration     5          0.609              1.934              3.125
 Vibration     6          0.614              1.916              2.841
 Vibration     7          0.622              1.891              2.551
 Vibration     8          0.645              1.818              2.001
 Vibration     9          0.655              1.785              1.830
 Vibration    10          0.671              1.737              1.628
 Vibration    11          0.683              1.703              1.507
 Vibration    12          0.691              1.677              1.427
 Vibration    13          0.706              1.635              1.310
 Vibration    14          0.732              1.561              1.135
 Vibration    15          0.746              1.524              1.061
 Vibration    16          0.760              1.485              0.989
 Vibration    17          0.769              1.463              0.951
 Vibration    18          0.788              1.414              0.872
 Vibration    19          0.819              1.337              0.764
 Vibration    20          0.901              1.150              0.554
 Vibration    21          0.924              1.101              0.509
 Vibration    22          0.963              1.023              0.442

 Optimization completed.
    -- Stationary point found.
 Normal termination of Gaussian 16 at Sat Dec 30 21:06:44 2023.
