 Gaussian 16, Revision C.01,
 Gaussian 16:  ES64L-G16RevC.01  3-Jul-2019

 ----------------------------------------------------------------------
 # wb97xd def2svp scrf=(iefpcm,solvent=toluene) opt=(calcfc,ts,noeigen,
 maxcycles=50,maxstep=10)
 ----------------------------------------------------------------------

 ---------
 TS-92.out
 ---------
 Symbolic Z-matrix:
 Charge =  0 Multiplicity = 1

 SCF Done:  E(RwB97XD) =  -671.952845291     A.U. after   14 cycles

  Exact polarizability:       0.000       0.000       0.000       0.000       0.000       0.000
 Approx polarizability:     190.681      -2.182     132.880      -0.719      17.418     159.963

 SCF Done:  E(RwB97XD) =  -671.959964021     A.U. after   12 cycles
 SCF Done:  E(RwB97XD) =  -671.965451497     A.U. after   12 cycles
 SCF Done:  E(RwB97XD) =  -671.968953084     A.U. after   12 cycles
 SCF Done:  E(RwB97XD) =  -671.970476493     A.U. after   12 cycles
 SCF Done:  E(RwB97XD) =  -671.971012647     A.U. after   12 cycles
 SCF Done:  E(RwB97XD) =  -671.971513611     A.U. after   12 cycles
 SCF Done:  E(RwB97XD) =  -671.971861353     A.U. after   12 cycles
 SCF Done:  E(RwB97XD) =  -671.971689020     A.U. after   12 cycles
 SCF Done:  E(RwB97XD) =  -671.971181157     A.U. after   12 cycles
 SCF Done:  E(RwB97XD) =  -671.970490568     A.U. after   12 cycles
 SCF Done:  E(RwB97XD) =  -671.970636333     A.U. after   12 cycles
 SCF Done:  E(RwB97XD) =  -671.970646964     A.U. after   11 cycles
 SCF Done:  E(RwB97XD) =  -671.970643216     A.U. after   11 cycles
 SCF Done:  E(RwB97XD) =  -671.970564940     A.U. after   12 cycles
 SCF Done:  E(RwB97XD) =  -671.970645054     A.U. after   12 cycles
 SCF Done:  E(RwB97XD) =  -671.970634703     A.U. after   10 cycles
 SCF Done:  E(RwB97XD) =  -671.970647871     A.U. after   11 cycles
 SCF Done:  E(RwB97XD) =  -671.970647996     A.U. after    8 cycles
 SCF Done:  E(RwB97XD) =  -671.970647933     A.U. after    8 cycles
 Optimization completed.
    -- Stationary point found.

                         Standard orientation:
 ---------------------------------------------------------------------
 Center     Atomic      Atomic             Coordinates (Angstroms)
 Number     Number       Type             X           Y           Z
 ---------------------------------------------------------------------
      1          6           0       -0.909193   -0.705532    0.186531
      2          6           0       -2.289434   -0.460484    0.151461
      3          8           0       -2.856799    0.640047    0.028832
      4          6           0        0.049855    0.412064    0.271128
      5          6           0       -0.801511    2.637515   -1.057130
      6          1           0       -0.190279    3.335750   -0.475804
      7          1           0       -0.913874    3.018548   -2.080764
      8          1           0       -1.783467    2.489105   -0.595601
      9          7           0       -0.141111    1.319633   -1.109433
     10          1           0       -0.703738    0.675584   -1.674494
     11          1           0        0.773212    1.396986   -1.562112
     12          6           0        1.494523   -0.073875    0.161540
     13          6           0        1.839111   -0.978627   -0.855370
     14          6           0        3.150352   -1.419225   -1.012720
     15          6           0        4.149144   -0.968035   -0.149479
     16          6           0        3.821341   -0.073040    0.865616
     17          6           0        2.507734    0.374092    1.016183
     18          1           0        1.058633   -1.353298   -1.522143
     19          1           0        3.391733   -2.126119   -1.809626
     20          1           0        5.177711   -1.315883   -0.266746
     21          1           0        4.592814    0.283681    1.551604
     22          1           0        2.281557    1.072815    1.821834
     23          6           0       -0.185027    1.368613    1.438879
     24          1           0       -1.243990    1.649363    1.471445
     25          1           0        0.045438    0.824216    2.364088
     26          1           0        0.436492    2.277076    1.410306
     27          1           0       -0.543523   -1.729189    0.237018
     28          8           0       -3.051055   -1.599478    0.222114
     29          6           0       -4.439892   -1.426273    0.098504
     30          1           0       -4.887573   -2.426298    0.172759
     31          1           0       -4.847523   -0.783064    0.894490
     32          1           0       -4.715026   -0.974408   -0.868642
 ---------------------------------------------------------------------

 The electronic state is 1-A.
 Alpha  occ. eigenvalues --  -19.24621 -19.17821 -14.54335 -10.36532 -10.36363
 Alpha  occ. eigenvalues --  -10.34730 -10.32112 -10.31934 -10.31140 -10.31126
 Alpha  occ. eigenvalues --  -10.31095 -10.31049 -10.31005 -10.28936 -10.22717
 Alpha  occ. eigenvalues --   -1.13994  -1.07628  -1.03757  -0.96408  -0.89827
 Alpha  occ. eigenvalues --   -0.84787  -0.83123  -0.80997  -0.79896  -0.75076
 Alpha  occ. eigenvalues --   -0.71462  -0.69854  -0.66553  -0.65819  -0.62396
 Alpha  occ. eigenvalues --   -0.60918  -0.58526  -0.57616  -0.55609  -0.54046
 Alpha  occ. eigenvalues --   -0.53588  -0.52957  -0.52139  -0.51675  -0.50916
 Alpha  occ. eigenvalues --   -0.49318  -0.48658  -0.46590  -0.46313  -0.46076
 Alpha  occ. eigenvalues --   -0.45526  -0.44040  -0.43311  -0.42337  -0.41807
 Alpha  occ. eigenvalues --   -0.39540  -0.34172  -0.34020  -0.33903  -0.30970
 Alpha  occ. eigenvalues --   -0.23595
 Alpha virt. eigenvalues --    0.04212   0.05020   0.11321   0.13414   0.14063
 Alpha virt. eigenvalues --    0.15162   0.16707   0.18041   0.18346   0.18437
 Alpha virt. eigenvalues --    0.19102   0.20534   0.21305   0.21872   0.22311

 Mulliken charges:
               1
     1  C   -0.307228
     2  C    0.269657
     3  O   -0.419699
     4  C   -0.099703
     5  C    0.026836
     6  H    0.067089
     7  H    0.072559
     8  H    0.102960
     9  N   -0.112858
    10  H    0.186866
    11  H    0.182584
    12  C   -0.002511
    13  C   -0.060086
    14  C   -0.018966
    15  C   -0.015143
    16  C   -0.022465
    17  C   -0.038059
    18  H    0.020910
    19  H    0.031514
    20  H    0.032359
    21  H    0.029940
    22  H    0.018413
    23  C    0.063188
    24  H    0.060954
    25  H    0.056350
    26  H    0.016893
    27  H    0.000939
    28  O   -0.373251
    29  C    0.151896
    30  H    0.032996
    31  H    0.026219
    32  H    0.018845
 Sum of Mulliken charges =  -0.00000

 Dipole moment (field-independent basis, Debye):
    X=              5.2347    Y=              4.0256    Z=             -3.3729  Tot=              7.4151
 Quadrupole moment (field-independent basis, Debye-Ang):
   XX=            -92.4997   YY=            -85.3924   ZZ=            -82.7110
   XY=              0.2289   XZ=              2.1489   YZ=             -1.0251

 Normal termination of Gaussian 16 at Mon Dec 18 21:24:54 2023.
