 Gaussian 16, Revision C.01,
 Gaussian 16:  ES64L-G16RevC.01  3-Jul-2019

 -----------------------------------------------------------
 # wb97xd def2svp scrf=(iefpcm,solvent=toluene) freq=noraman
 -----------------------------------------------------------

 ----------------------
 TS-92_opt_hf_reopt.out
 ----------------------
 Symbolic Z-matrix:
 Charge =  0 Multiplicity = 1

                         Standard orientation:
 ---------------------------------------------------------------------
 Center     Atomic      Atomic             Coordinates (Angstroms)
 Number     Number       Type             X           Y           Z
 ---------------------------------------------------------------------
      1          6           0       -0.909109   -0.705539    0.186200
      2          6           0       -2.289359   -0.460509    0.151320
      3          8           0       -2.856799    0.640031    0.029040
      4          6           0        0.049871    0.412271    0.270790
      5          6           0       -0.802049    2.637151   -1.057140
      6          1           0       -0.191059    3.335641   -0.475860
      7          1           0       -0.914479    3.018011   -2.080820
      8          1           0       -1.783969    2.488421   -0.595610
      9          7           0       -0.141169    1.319481   -1.109350
     10          1           0       -0.703519    0.675211   -1.674470
     11          1           0        0.773151    1.397141   -1.562010
     12          6           0        1.494571   -0.073720    0.161400
     13          6           0        1.839301   -0.978380   -0.855540
     14          6           0        3.150560   -1.419000   -1.012730
     15          6           0        4.149221   -0.967930   -0.149270
     16          6           0        3.821271   -0.073040    0.865870
     17          6           0        2.507661    0.374110    1.016270
     18          1           0        1.058930   -1.353009   -1.522470
     19          1           0        3.392060   -2.125820   -1.809670
     20          1           0        5.177800   -1.315790   -0.266410
     21          1           0        4.592641    0.283580    1.552030
     22          1           0        2.281361    1.072760    1.821950
     23          6           0       -0.185039    1.368671    1.438700
     24          1           0       -1.243999    1.649451    1.471270
     25          1           0        0.045321    0.824131    2.363840
     26          1           0        0.436511    2.277121    1.410290
     27          1           0       -0.543390   -1.729149    0.237230
     28          8           0       -3.050920   -1.599569    0.221850
     29          6           0       -4.439810   -1.426369    0.098910
     30          1           0       -4.887370   -2.426519    0.172230
     31          1           0       -4.847239   -0.784099    0.895780
     32          1           0       -4.715329   -0.973429   -0.867620
 ---------------------------------------------------------------------

 SCF Done:  E(RwB97XD) =  -671.970647944     A.U. after   14 cycles

 The electronic state is 1-A.
 Alpha  occ. eigenvalues --  -19.24619 -19.17819 -14.54343 -10.36532 -10.36361
 Alpha  occ. eigenvalues --  -10.34732 -10.32111 -10.31934 -10.31140 -10.31126
 Alpha  occ. eigenvalues --  -10.31095 -10.31049 -10.31005 -10.28936 -10.22716
 Alpha  occ. eigenvalues --   -1.13992  -1.07638  -1.03756  -0.96408  -0.89826
 Alpha  occ. eigenvalues --   -0.84787  -0.83123  -0.81000  -0.79896  -0.75075
 Alpha  occ. eigenvalues --   -0.71462  -0.69854  -0.66557  -0.65822  -0.62401
 Alpha  occ. eigenvalues --   -0.60917  -0.58527  -0.57618  -0.55608  -0.54046
 Alpha  occ. eigenvalues --   -0.53586  -0.52956  -0.52139  -0.51675  -0.50916
 Alpha  occ. eigenvalues --   -0.49318  -0.48659  -0.46590  -0.46312  -0.46077
 Alpha  occ. eigenvalues --   -0.45526  -0.44040  -0.43311  -0.42337  -0.41806
 Alpha  occ. eigenvalues --   -0.39538  -0.34172  -0.34019  -0.33903  -0.30969
 Alpha  occ. eigenvalues --   -0.23593
 Alpha virt. eigenvalues --    0.04214   0.05020   0.11319   0.13421   0.14063
 Alpha virt. eigenvalues --    0.15163   0.16706   0.18042   0.18345   0.18437
 Alpha virt. eigenvalues --    0.19103   0.20533   0.21307   0.21872   0.22312

 Mulliken charges:
               1
     1  C   -0.307285
     2  C    0.269688
     3  O   -0.419741
     4  C   -0.099852
     5  C    0.026833
     6  H    0.067102
     7  H    0.072568
     8  H    0.103013
     9  N   -0.112689
    10  H    0.186884
    11  H    0.182615
    12  C   -0.002526
    13  C   -0.060093
    14  C   -0.018969
    15  C   -0.015145
    16  C   -0.022466
    17  C   -0.038047
    18  H    0.020909
    19  H    0.031516
    20  H    0.032360
    21  H    0.029941
    22  H    0.018413
    23  C    0.063186
    24  H    0.060955
    25  H    0.056338
    26  H    0.016899
    27  H    0.000929
    28  O   -0.373271
    29  C    0.151904
    30  H    0.032986
    31  H    0.026195
    32  H    0.018850
 Sum of Mulliken charges =  -0.00000

 Dipole moment (field-independent basis, Debye):
    X=              5.2355    Y=              4.0273    Z=             -3.3729  Tot=              7.4166
 Quadrupole moment (field-independent basis, Debye-Ang):
   XX=            -92.5046   YY=            -85.3930   ZZ=            -82.7089
   XY=              0.2256   XZ=              2.1483   YZ=             -1.0304

  Exact polarizability:     214.959      -5.122     142.517       4.730      16.513     130.927
 Approx polarizability:     183.470      -7.321     145.860       5.590      18.330     138.918

 ******    1 imaginary frequencies (negative Signs) ******

                      1                      2                      3
                      A                      A                      A
 Frequencies --    -75.9596                49.4804                73.3461
 Red. masses --      2.8026                 3.8046                 3.0828
 Frc consts  --      0.0095                 0.0055                 0.0098
 IR Inten    --      2.1509                 0.5069                 5.3668

                      4                      5                      6
                      A                      A                      A
 Frequencies --     84.7890               102.3254               118.6083
 Red. masses --      4.4221                 1.8842                 2.1163
 Frc consts  --      0.0187                 0.0116                 0.0175
 IR Inten    --      5.2133                 7.5771                 3.9888

                      7                      8                      9
                      A                      A                      A
 Frequencies --    137.2988               160.0771               215.2856
 Red. masses --      3.6219                 2.1742                 3.7208
 Frc consts  --      0.0402                 0.0328                 0.1016
 IR Inten    --      1.2361                 1.7722                18.7554

                     10                     11                     12
                      A                      A                      A
 Frequencies --    237.1593               265.2361               284.4081
 Red. masses --      3.4995                 1.3506                 3.5269
 Frc consts  --      0.1160                 0.0560                 0.1681
 IR Inten    --     37.0225                 1.2758                 1.3082

                     13                     14                     15
                      A                      A                      A
 Frequencies --    298.3274               320.2215               357.1190
 Red. masses --      3.2165                 3.7066                 3.0813
 Frc consts  --      0.1687                 0.2239                 0.2315
 IR Inten    --     21.7149                12.2137                36.0952

                     16                     17                     18
                      A                      A                      A
 Frequencies --    374.6599               393.1592               403.4520
 Red. masses --      3.8733                 2.1111                 1.3147
 Frc consts  --      0.3203                 0.1923                 0.1261
 IR Inten    --     19.2203                10.4882                 6.1736

                     19                     20                     21
                      A                      A                      A
 Frequencies --    426.0776               460.8298               545.4005
 Red. masses --      2.6154                 2.9899                 2.8851
 Frc consts  --      0.2797                 0.3741                 0.5056
 IR Inten    --      0.1284                 8.5240                20.8217

                     22                     23                     24
                      A                      A                      A
 Frequencies --    567.5474               604.2915               623.3501
 Red. masses --      1.8439                 3.1871                 2.0257
 Frc consts  --      0.3499                 0.6857                 0.4638
 IR Inten    --     13.3693                29.4335               126.4895

                     25                     26                     27
                      A                      A                      A
 Frequencies --    636.1866               726.7207               730.7545
 Red. masses --      6.0258                 4.7203                 1.6534
 Frc consts  --      1.4369                 1.4688                 0.5202
 IR Inten    --      3.1963                 7.9495                39.7882

                     28                     29                     30
                      A                      A                      A
 Frequencies --    755.6465               789.6467               808.3691
 Red. masses --      2.0633                 7.1772                 2.1999
 Frc consts  --      0.6942                 2.6368                 0.8470
 IR Inten    --     61.0832                25.1513                 7.6992

                     31                     32                     33
                      A                      A                      A
 Frequencies --    843.0187               880.0738               941.6843
 Red. masses --      1.8803                 1.2460                 2.8255
 Frc consts  --      0.7873                 0.5686                 1.4763
 IR Inten    --     21.6688                 0.1400                64.2390

                     34                     35                     36
                      A                      A                      A
 Frequencies --    969.0837               989.0754              1019.4581
 Red. masses --      1.5303                 3.0424                 5.2794
 Frc consts  --      0.8467                 1.7536                 3.2328
 IR Inten    --      2.0384                38.5465                 2.0545

                     37                     38                     39
                      A                      A                      A
 Frequencies --   1023.5147              1044.1069              1054.1142
 Red. masses --      1.3920                 1.3397                 1.8435
 Frc consts  --      0.8592                 0.8605                 1.2069
 IR Inten    --      0.6029                 0.3349                26.5680

                     40                     41                     42
                      A                      A                      A
 Frequencies --   1061.1088              1067.3630              1085.1181
 Red. masses --      2.0781                 1.9738                 1.3284
 Frc consts  --      1.3786                 1.3249                 0.9216
 IR Inten    --     12.3351                21.8041                48.2889

                     43                     44                     45
                      A                      A                      A
 Frequencies --   1097.9010              1118.0811              1141.6088
 Red. masses --      1.8778                 1.6006                 2.3046
 Frc consts  --      1.3336                 1.1789                 1.7696
 IR Inten    --     15.0248                19.8650                57.6858

                     46                     47                     48
                      A                      A                      A
 Frequencies --   1151.7696              1177.0933              1182.7388
 Red. masses --      1.7425                 1.0922                 1.2936
 Frc consts  --      1.3619                 0.8916                 1.0662
 IR Inten    --      6.8580                 1.3245                 1.3844

                     49                     50                     51
                      A                      A                      A
 Frequencies --   1204.6437              1208.3236              1214.0956
 Red. masses --      1.6732                 1.4348                 1.4264
 Frc consts  --      1.4306                 1.2343                 1.2388
 IR Inten    --    161.4911               200.8017               130.9458

                     52                     53                     54
                      A                      A                      A
 Frequencies --   1264.8257              1301.7874              1319.4542
 Red. masses --      3.0636                 2.9936                 1.4439
 Frc consts  --      2.8877                 2.9889                 1.4811
 IR Inten    --     41.9504                74.3673                80.7711

                     55                     56                     57
                      A                      A                      A
 Frequencies --   1340.5677              1352.7364              1373.3862
 Red. masses --      1.4460                 1.4069                 3.5604
 Frc consts  --      1.5311                 1.5169                 3.9567
 IR Inten    --     11.1090                28.2324                 3.5863

                     58                     59                     60
                      A                      A                      A
 Frequencies --   1395.0990              1428.6927              1441.4503
 Red. masses --      1.3966                 1.1725                 1.4393
 Frc consts  --      1.6015                 1.4100                 1.7620
 IR Inten    --     22.8106                21.3931               215.4439

                     61                     62                     63
                      A                      A                      A
 Frequencies --   1459.6787              1464.2186              1481.0765
 Red. masses --      1.0426                 1.0826                 1.1179
 Frc consts  --      1.3088                 1.3675                 1.4449
 IR Inten    --      5.9099                 5.8852               187.9211

                     64                     65                     66
                      A                      A                      A
 Frequencies --   1483.0462              1485.6120              1495.6295
 Red. masses --      1.1159                 1.1563                 1.8861
 Frc consts  --      1.4460                 1.5036                 2.4858
 IR Inten    --     49.1489                17.1874                17.5359

                     67                     68                     69
                      A                      A                      A
 Frequencies --   1510.1316              1515.2153              1545.2034
 Red. masses --      1.0482                 1.9142                 2.4550
 Frc consts  --      1.4083                 2.5894                 3.4536
 IR Inten    --      4.4859               315.0581                 9.5522

                     70                     71                     72
                      A                      A                      A
 Frequencies --   1606.6731              1671.0213              1696.3369
 Red. masses --      1.0941                 6.1868                 6.4029
 Frc consts  --      1.6640                10.1784                10.8556
 IR Inten    --     22.1674                10.8527                87.9443

                     73                     74                     75
                      A                      A                      A
 Frequencies --   1707.5848              3037.0668              3059.0915
 Red. masses --      8.2923                 1.0329                 1.0417
 Frc consts  --     14.2459                 5.6133                 5.7433
 IR Inten    --    596.8325                89.3809                33.7852

                     76                     77                     78
                      A                      A                      A
 Frequencies --   3086.2706              3121.2927              3159.7196
 Red. masses --      1.0342                 1.1061                 1.0998
 Frc consts  --      5.8039                 6.3491                 6.4693
 IR Inten    --     39.9226                43.0386                17.0907

                     79                     80                     81
                      A                      A                      A
 Frequencies --   3164.0766              3195.8786              3198.9413
 Red. masses --      1.1059                 1.1047                 1.1060
 Frc consts  --      6.5234                 6.6480                 6.6685
 IR Inten    --     32.3884                 2.8536                 7.5009

                     82                     83                     84
                      A                      A                      A
 Frequencies --   3201.5888              3208.5247              3216.8963
 Red. masses --      1.0869                 1.0902                 1.0950
 Frc consts  --      6.5640                 6.6127                 6.6764
 IR Inten    --      1.0351                 1.4564                12.8684

                     85                     86                     87
                      A                      A                      A
 Frequencies --   3227.0728              3231.4541              3242.5830
 Red. masses --      1.0997                 1.1100                 1.0944
 Frc consts  --      6.7474                 6.8294                 6.7794
 IR Inten    --     17.4111                 8.4010                 4.8217

                     88                     89                     90
                      A                      A                      A
 Frequencies --   3253.2396              3470.7871              3557.5888
 Red. masses --      1.0911                 1.0559                 1.0953
 Frc consts  --      6.8036                 7.4945                 8.1673
 IR Inten    --      3.0070                28.3593                74.0164

 - Thermochemistry -
 -------------------
 Temperature   298.150 Kelvin.  Pressure   1.00000 Atm.
 Atom     1 has atomic number  6 and mass  12.00000

 Molecular mass:   207.12593 amu.
 Principal axes and moments of inertia in atomic units:
                           1         2         3
     Eigenvalues --  1618.056935423.760486083.59690
           X            1.00000   0.00106   0.00228
           Y           -0.00110   0.99988   0.01540
           Z           -0.00226  -0.01540   0.99988
 This molecule is an asymmetric top.
 Rotational symmetry number  1.
 Warning -- assumption of classical behavior for rotation
           may cause significant error
 Rotational temperatures (Kelvin)      0.05353     0.01597     0.01424
 Rotational constants (GHZ):           1.11538     0.33275     0.29666
    1 imaginary frequencies ignored.
 Zero-point vibrational energy     723712.3 (Joules/Mol)
                                  172.97139 (Kcal/Mol)
 Warning -- explicit consideration of  22 degrees of freedom as
           vibrations may cause significant error
 Vibrational temperatures:     71.19   105.53   121.99   147.22   170.65
          (Kelvin)            197.54   230.32   309.75   341.22   381.62
                              409.20   429.23   460.73   513.81   539.05
                              565.67   580.48   613.03   663.03   784.71
                              816.57   869.44   896.86   915.33  1045.59
                             1051.39  1087.21  1136.13  1163.06  1212.92
                             1266.23  1354.87  1394.30  1423.06  1466.77
                             1472.61  1502.24  1516.64  1526.70  1535.70
                             1561.24  1579.63  1608.67  1642.52  1657.14
                             1693.57  1701.70  1733.21  1738.51  1746.81
                             1819.80  1872.98  1898.40  1928.78  1946.29
                             1976.00  2007.24  2055.57  2073.93  2100.15
                             2106.68  2130.94  2133.77  2137.46  2151.88
                             2172.74  2180.06  2223.20  2311.64  2404.23
                             2440.65  2456.83  4369.66  4401.35  4440.46
                             4490.84  4546.13  4552.40  4598.16  4602.56
                             4606.37  4616.35  4628.40  4643.04  4649.34
                             4665.35  4680.69  4993.69  5118.58

 Zero-point correction=                           0.275647 (Hartree/Particle)
 Thermal correction to Energy=                    0.290250
 Thermal correction to Enthalpy=                  0.291194
 Thermal correction to Gibbs Free Energy=         0.234292
 Sum of electronic and zero-point Energies=           -671.695000
 Sum of electronic and thermal Energies=              -671.680398
 Sum of electronic and thermal Enthalpies=            -671.679454
 Sum of electronic and thermal Free Energies=         -671.736356

                     E (Thermal)             CV                S
                      KCal/Mol        Cal/Mol-Kelvin    Cal/Mol-Kelvin
 Total                  182.134             56.161            119.760
 Electronic               0.000              0.000              0.000
 Translational            0.889              2.981             41.888
 Rotational               0.889              2.981             32.346
 Vibrational            180.357             50.200             45.526
 Vibration     1          0.595              1.978              4.838
 Vibration     2          0.599              1.967              4.061
 Vibration     3          0.601              1.960              3.777
 Vibration     4          0.604              1.947              3.410
 Vibration     5          0.609              1.934              3.123
 Vibration     6          0.614              1.916              2.841
 Vibration     7          0.622              1.891              2.549
 Vibration     8          0.645              1.818              1.998
 Vibration     9          0.656              1.784              1.824
 Vibration    10          0.671              1.737              1.627
 Vibration    11          0.683              1.703              1.507
 Vibration    12          0.691              1.677              1.426
 Vibration    13          0.706              1.635              1.309
 Vibration    14          0.732              1.561              1.135
 Vibration    15          0.746              1.524              1.061
 Vibration    16          0.760              1.485              0.988
 Vibration    17          0.769              1.463              0.950
 Vibration    18          0.788              1.413              0.872
 Vibration    19          0.819              1.337              0.764
 Vibration    20          0.901              1.150              0.554
 Vibration    21          0.924              1.101              0.509
 Vibration    22          0.963              1.023              0.442

 Normal termination of Gaussian 16 at Sat Dec 30 21:06:54 2023.
