 Gaussian 16, Revision C.01,
 Gaussian 16:  ES64L-G16RevC.01  3-Jul-2019

 ----------------------------------------------------------------------
 # wb97xd def2svp geom=allchk scrf=(iefpcm,solvent=toluene) opt=(readfc
 ,ts,noeigen,maxcycles=50,maxstep=10)
 ----------------------------------------------------------------------

 Structure from the checkpoint file:  "TS-92_hf.chk"
 ---------
 TS-92.out
 ---------
 Charge =  0 Multiplicity = 1

 SCF Done:  E(RwB97XD) =  -671.971956879     A.U. after   14 cycles
 SCF Done:  E(RwB97XD) =  -671.971841261     A.U. after   12 cycles
 SCF Done:  E(RwB97XD) =  -671.971554814     A.U. after   13 cycles
 SCF Done:  E(RwB97XD) =  -671.970789890     A.U. after   13 cycles
 SCF Done:  E(RwB97XD) =  -671.970370065     A.U. after   13 cycles
 SCF Done:  E(RwB97XD) =  -671.970499052     A.U. after   13 cycles
 SCF Done:  E(RwB97XD) =  -671.971067863     A.U. after   13 cycles
 SCF Done:  E(RwB97XD) =  -671.970844433     A.U. after   12 cycles
 SCF Done:  E(RwB97XD) =  -671.971463586     A.U. after   13 cycles
 SCF Done:  E(RwB97XD) =  -671.971839346     A.U. after   13 cycles
 SCF Done:  E(RwB97XD) =  -671.971006503     A.U. after   12 cycles
 SCF Done:  E(RwB97XD) =  -671.970836074     A.U. after   13 cycles
 SCF Done:  E(RwB97XD) =  -671.970468502     A.U. after   12 cycles
 SCF Done:  E(RwB97XD) =  -671.970675836     A.U. after   12 cycles
 SCF Done:  E(RwB97XD) =  -671.970658209     A.U. after   12 cycles
 SCF Done:  E(RwB97XD) =  -671.970640796     A.U. after   12 cycles
 SCF Done:  E(RwB97XD) =  -671.970642474     A.U. after   11 cycles
 SCF Done:  E(RwB97XD) =  -671.970647626     A.U. after   11 cycles
 SCF Done:  E(RwB97XD) =  -671.970647865     A.U. after    9 cycles
 SCF Done:  E(RwB97XD) =  -671.970647945     A.U. after    8 cycles
 Optimization completed.
    -- Stationary point found.

                         Standard orientation:
 ---------------------------------------------------------------------
 Center     Atomic      Atomic             Coordinates (Angstroms)
 Number     Number       Type             X           Y           Z
 ---------------------------------------------------------------------
      1          6           0       -0.909112   -0.705537    0.186200
      2          6           0       -2.289355   -0.460512    0.151316
      3          8           0       -2.856799    0.640029    0.029040
      4          6           0        0.049868    0.412272    0.270792
      5          6           0       -0.802046    2.637151   -1.057136
      6          1           0       -0.191061    3.335642   -0.475863
      7          1           0       -0.914477    3.018013   -2.080822
      8          1           0       -1.783971    2.488418   -0.595611
      9          7           0       -0.141166    1.319476   -1.109353
     10          1           0       -0.703520    0.675214   -1.674471
     11          1           0        0.773148    1.397135   -1.562012
     12          6           0        1.494571   -0.073724    0.161396
     13          6           0        1.839302   -0.978382   -0.855544
     14          6           0        3.150565   -1.418996   -1.012726
     15          6           0        4.149221   -0.967930   -0.149274
     16          6           0        3.821268   -0.073039    0.865872
     17          6           0        2.507655    0.374113    1.016266
     18          1           0        1.058930   -1.353008   -1.522466
     19          1           0        3.392056   -2.125817   -1.809665
     20          1           0        5.177798   -1.315792   -0.266406
     21          1           0        4.592636    0.283580    1.552032
     22          1           0        2.281363    1.072757    1.821952
     23          6           0       -0.185043    1.368671    1.438697
     24          1           0       -1.243997    1.649445    1.471268
     25          1           0        0.045322    0.824135    2.363844
     26          1           0        0.436512    2.277122    1.410287
     27          1           0       -0.543386   -1.729146    0.237230
     28          8           0       -3.050918   -1.599570    0.221852
     29          6           0       -4.439813   -1.426365    0.098913
     30          1           0       -4.887369   -2.426516    0.172233
     31          1           0       -4.847236   -0.784100    0.895780
     32          1           0       -4.715331   -0.973433   -0.867615
 ---------------------------------------------------------------------

 The electronic state is 1-A.
 Alpha  occ. eigenvalues --  -19.24619 -19.17819 -14.54343 -10.36532 -10.36361
 Alpha  occ. eigenvalues --  -10.34732 -10.32111 -10.31934 -10.31140 -10.31126
 Alpha  occ. eigenvalues --  -10.31095 -10.31049 -10.31005 -10.28936 -10.22716
 Alpha  occ. eigenvalues --   -1.13992  -1.07638  -1.03756  -0.96408  -0.89826
 Alpha  occ. eigenvalues --   -0.84787  -0.83123  -0.81000  -0.79896  -0.75075
 Alpha  occ. eigenvalues --   -0.71462  -0.69854  -0.66557  -0.65822  -0.62401
 Alpha  occ. eigenvalues --   -0.60917  -0.58527  -0.57618  -0.55608  -0.54046
 Alpha  occ. eigenvalues --   -0.53586  -0.52956  -0.52139  -0.51676  -0.50916
 Alpha  occ. eigenvalues --   -0.49318  -0.48659  -0.46590  -0.46312  -0.46077
 Alpha  occ. eigenvalues --   -0.45526  -0.44040  -0.43311  -0.42337  -0.41806
 Alpha  occ. eigenvalues --   -0.39538  -0.34172  -0.34019  -0.33903  -0.30969
 Alpha  occ. eigenvalues --   -0.23593
 Alpha virt. eigenvalues --    0.04214   0.05020   0.11319   0.13421   0.14063
 Alpha virt. eigenvalues --    0.15163   0.16706   0.18042   0.18345   0.18437
 Alpha virt. eigenvalues --    0.19103   0.20534   0.21307   0.21872   0.22312

 Mulliken charges:
               1
     1  C   -0.307283
     2  C    0.269689
     3  O   -0.419746
     4  C   -0.099854
     5  C    0.026830
     6  H    0.067102
     7  H    0.072569
     8  H    0.103015
     9  N   -0.112684
    10  H    0.186882
    11  H    0.182613
    12  C   -0.002524
    13  C   -0.060090
    14  C   -0.018966
    15  C   -0.015141
    16  C   -0.022468
    17  C   -0.038050
    18  H    0.020907
    19  H    0.031514
    20  H    0.032359
    21  H    0.029940
    22  H    0.018413
    23  C    0.063190
    24  H    0.060953
    25  H    0.056339
    26  H    0.016900
    27  H    0.000929
    28  O   -0.373274
    29  C    0.151910
    30  H    0.032985
    31  H    0.026194
    32  H    0.018849
 Sum of Mulliken charges =  -0.00000

 Dipole moment (field-independent basis, Debye):
    X=              5.2355    Y=              4.0273    Z=             -3.3729  Tot=              7.4167
 Quadrupole moment (field-independent basis, Debye-Ang):
   XX=            -92.5046   YY=            -85.3930   ZZ=            -82.7088
   XY=              0.2256   XZ=              2.1484   YZ=             -1.0304

 Normal termination of Gaussian 16 at Tue Dec 19 23:19:14 2023.
