 Gaussian 16, Revision C.01,
 Gaussian 16:  ES64L-G16RevC.01  3-Jul-2019

 ----------------------------------------------------------------------
 # wb97xd chkbasis guess=read geom=allchk scrf=(iefpcm,solvent=toluene)
  opt=(readfc,ts,noeigen,maxcycles=50,maxstep=10)
 ----------------------------------------------------------------------

 Structure from the checkpoint file:  "TS-92_opt_sqm.chk"
 ---------
 TS-92.out
 ---------
 Charge =  0 Multiplicity = 1

 SCF Done:  E(RwB97XD) =  -671.970637430     A.U. after    4 cycles
 SCF Done:  E(RwB97XD) =  -671.970629609     A.U. after   11 cycles
 SCF Done:  E(RwB97XD) =  -671.970648234     A.U. after   11 cycles
 SCF Done:  E(RwB97XD) =  -671.970647686     A.U. after   10 cycles
 SCF Done:  E(RwB97XD) =  -671.970647898     A.U. after    9 cycles
 Optimization completed.
    -- Stationary point found.

                         Standard orientation:
 ---------------------------------------------------------------------
 Center     Atomic      Atomic             Coordinates (Angstroms)
 Number     Number       Type             X           Y           Z
 ---------------------------------------------------------------------
      1          6           0       -0.909016   -0.705498    0.186109
      2          6           0       -2.289321   -0.460536    0.151458
      3          8           0       -2.856944    0.639953    0.029803
      4          6           0        0.049879    0.412179    0.271103
      5          6           0       -0.802199    2.637495   -1.057396
      6          1           0       -0.191572    3.336164   -0.476014
      7          1           0       -0.914537    3.018482   -2.081056
      8          1           0       -1.784160    2.488649   -0.595971
      9          7           0       -0.141058    1.319966   -1.109446
     10          1           0       -0.703327    0.675558   -1.674450
     11          1           0        0.773258    1.397591   -1.562030
     12          6           0        1.494594   -0.073668    0.161563
     13          6           0        1.839217   -0.978325   -0.855494
     14          6           0        3.150356   -1.419131   -1.012709
     15          6           0        4.149166   -0.968086   -0.149357
     16          6           0        3.821388   -0.073140    0.865735
     17          6           0        2.507770    0.374111    1.016279
     18          1           0        1.058762   -1.352671   -1.522502
     19          1           0        3.391748   -2.126081   -1.809566
     20          1           0        5.177692   -1.316050   -0.266622
     21          1           0        4.592818    0.283521    1.551803
     22          1           0        2.281694    1.072757    1.821974
     23          6           0       -0.185229    1.368673    1.438839
     24          1           0       -1.244268    1.649214    1.471365
     25          1           0        0.045449    0.824371    2.364058
     26          1           0        0.436020    2.277287    1.410197
     27          1           0       -0.543328   -1.729181    0.236001
     28          8           0       -3.050705   -1.599735    0.221416
     29          6           0       -4.439646   -1.426713    0.098717
     30          1           0       -4.886995   -2.427026    0.171344
     31          1           0       -4.847108   -0.785183    0.896154
     32          1           0       -4.715304   -0.973064   -0.867405
 ---------------------------------------------------------------------

 The electronic state is 1-A.
 Alpha  occ. eigenvalues --  -19.24621 -19.17823 -14.54333 -10.36532 -10.36365
 Alpha  occ. eigenvalues --  -10.34730 -10.32112 -10.31934 -10.31140 -10.31125
 Alpha  occ. eigenvalues --  -10.31094 -10.31048 -10.31005 -10.28935 -10.22718
 Alpha  occ. eigenvalues --   -1.13995  -1.07626  -1.03759  -0.96408  -0.89826
 Alpha  occ. eigenvalues --   -0.84787  -0.83123  -0.80996  -0.79897  -0.75076
 Alpha  occ. eigenvalues --   -0.71461  -0.69854  -0.66553  -0.65817  -0.62394
 Alpha  occ. eigenvalues --   -0.60918  -0.58527  -0.57615  -0.55609  -0.54046
 Alpha  occ. eigenvalues --   -0.53588  -0.52958  -0.52139  -0.51674  -0.50916
 Alpha  occ. eigenvalues --   -0.49317  -0.48659  -0.46590  -0.46312  -0.46074
 Alpha  occ. eigenvalues --   -0.45525  -0.44039  -0.43313  -0.42337  -0.41807
 Alpha  occ. eigenvalues --   -0.39540  -0.34172  -0.34021  -0.33903  -0.30971
 Alpha  occ. eigenvalues --   -0.23597
 Alpha virt. eigenvalues --    0.04211   0.05020   0.11321   0.13412   0.14063
 Alpha virt. eigenvalues --    0.15162   0.16707   0.18042   0.18346   0.18436
 Alpha virt. eigenvalues --    0.19103   0.20534   0.21306   0.21874   0.22311

 Mulliken charges:
               1
     1  C   -0.307235
     2  C    0.269673
     3  O   -0.419615
     4  C   -0.099717
     5  C    0.026821
     6  H    0.067073
     7  H    0.072557
     8  H    0.102967
     9  N   -0.112880
    10  H    0.186825
    11  H    0.182566
    12  C   -0.002469
    13  C   -0.060061
    14  C   -0.018979
    15  C   -0.015146
    16  C   -0.022456
    17  C   -0.038082
    18  H    0.020910
    19  H    0.031513
    20  H    0.032357
    21  H    0.029939
    22  H    0.018389
    23  C    0.063158
    24  H    0.060980
    25  H    0.056349
    26  H    0.016882
    27  H    0.000971
    28  O   -0.373262
    29  C    0.151901
    30  H    0.033001
    31  H    0.026202
    32  H    0.018870
 Sum of Mulliken charges =  -0.00000

 Dipole moment (field-independent basis, Debye):
    X=              5.2332    Y=              4.0255    Z=             -3.3730  Tot=              7.4141
 Quadrupole moment (field-independent basis, Debye-Ang):
   XX=            -92.4975   YY=            -85.3907   ZZ=            -82.7111
   XY=              0.2287   XZ=              2.1514   YZ=             -1.0302

 Normal termination of Gaussian 16 at Tue Dec 19 14:16:24 2023.
