 Gaussian 16, Revision C.01,
 Gaussian 16:  ES64L-G16RevC.01  3-Jul-2019

 ----------------------------------
 # pm6 scrf=(iefpcm, solvent=water)
 ----------------------------------

 ----------------------------
 MA1_1_b3lyp.out,H,Br,Ph,NHMe
 ----------------------------
 Symbolic Z-matrix:
 Charge =  0 Multiplicity = 1

                         Standard orientation:
 ---------------------------------------------------------------------
 Center     Atomic      Atomic             Coordinates (Angstroms)
 Number     Number       Type             X           Y           Z
 ---------------------------------------------------------------------
      1          6           0        0.061772    0.162216   -0.059875
      2          6           0       -0.400737    1.455836    0.531628
      3          8           0       -1.154285    1.502537    1.497806
      4          6           0       -0.853672   -0.805018   -0.345820
      5          6           0       -0.177655   -2.940691    1.773981
      6          1           0       -0.631182   -3.300643    2.701799
      7          1           0       -0.079376   -3.779895    1.080047
      8          1           0        0.820184   -2.553824    1.997228
      9          7           0       -1.005463   -1.890117    1.175444
     10          1           0       -1.954934   -2.271798    1.086502
     11          1           0       -1.128688   -1.163602    1.897833
     12          1           0       -0.541880   -1.705518   -0.884854
     13         35           0       -2.677897   -0.387462   -0.764800
     14          6           0        1.508336   -0.106675   -0.221425
     15          6           0        2.390431    0.133350    0.842186
     16          6           0        3.760311   -0.094496    0.695055
     17          6           0        4.263665   -0.560337   -0.517784
     18          6           0        3.399240   -0.798390   -1.584394
     19          6           0        2.028757   -0.571306   -1.438662
     20          1           0        2.014273    0.490022    1.799605
     21          1           0        4.432906    0.089375    1.529027
     22          1           0        5.330051   -0.739096   -0.631145
     23          1           0        3.791746   -1.160993   -2.531096
     24          1           0        1.372852   -0.755155   -2.286976
     25          7           0        0.139346    2.562680   -0.082072
     26          6           0       -0.107448    3.889618    0.416320
     27          1           0        0.842869    2.431186   -0.797291
     28          1           0       -1.141525    3.984351    0.758358
     29          1           0        0.571313    4.079206    1.251978
     30          1           0        0.086869    4.604651   -0.386335
 ---------------------------------------------------------------------

 SCF Done:  E(RPM6) = -0.133437445372E-01 A.U. after   20 cycles

 The electronic state is 1-A.
 Alpha  occ. eigenvalues --   -1.21069  -1.19227  -1.12229  -1.10160  -1.03779
 Alpha  occ. eigenvalues --   -0.99809  -0.95787  -0.93863  -0.93240  -0.88432
 Alpha  occ. eigenvalues --   -0.81431  -0.78512  -0.77649  -0.73129  -0.66588
 Alpha  occ. eigenvalues --   -0.66269  -0.61899  -0.61082  -0.59728  -0.59442
 Alpha  occ. eigenvalues --   -0.57215  -0.56564  -0.55535  -0.54508  -0.53119
 Alpha  occ. eigenvalues --   -0.52559  -0.50915  -0.49773  -0.49183  -0.48822
 Alpha  occ. eigenvalues --   -0.48205  -0.46835  -0.44489  -0.44125  -0.41608
 Alpha  occ. eigenvalues --   -0.41185  -0.39739  -0.36851  -0.36252  -0.36238
 Alpha  occ. eigenvalues --   -0.31639
 Alpha virt. eigenvalues --   -0.01994   0.00431   0.00670   0.01752   0.05096
 Alpha virt. eigenvalues --    0.07158   0.09416   0.11925   0.13379   0.14359
 Alpha virt. eigenvalues --    0.15722   0.16283   0.17412   0.17727   0.17891

 Mulliken charges:
               1
     1  C   -0.554770
     2  C    0.664038
     3  O   -0.681746
     4  C    0.220963
     5  C   -0.372369
     6  H    0.164499
     7  H    0.174028
     8  H    0.175881
     9  N   -0.334457
    10  H    0.222265
    11  H    0.232758
    12  H    0.163948
    13  Br  -0.141802
    14  C    0.181571
    15  C   -0.250856
    16  C   -0.101417
    17  C   -0.209626
    18  C   -0.099876
    19  C   -0.252034
    20  H    0.160847
    21  H    0.147357
    22  H    0.155449
    23  H    0.147656
    24  H    0.160997
    25  N   -0.448055
    26  C   -0.293253
    27  H    0.289226
    28  H    0.165523
    29  H    0.151969
    30  H    0.161287
 Sum of Mulliken charges =   0.00000

 Dipole moment (field-independent basis, Debye):
    X=              1.9536    Y=             -4.0096    Z=             -0.2998  Tot=              4.4703
 N-N= 5.692406658798D+02 E-N=-9.423491368307D+02  KE=-1.431677702610D+02
 Unable to Open any file for archive entry.
 1\1\GINC-NODE-004\SP\RPM6\ZDO\C11H15Br1N2O1\TLA25\29-Jul-2023\0\\# pm6
  scrf=(iefpcm, solvent=water)\\MA1_1_b3lyp.out,H,Br,Ph,NHMe\\0,1\C,0,-
 0.9426,-0.4822,0.2455\C,0,-1.5756,0.5815,-0.5942\O,0,-0.9283,1.4979,-1
 .0889\C,0,-0.1081,-0.122,1.26\C,0,2.6218,-1.0643,0.1777\H,0,3.5135,-0.
 5843,-0.2353\H,0,2.9099,-1.6492,1.0554\H,0,2.2078,-1.7426,-0.5731\N,0,
 1.6267,-0.056,0.5523\H,0,2.0981,0.6134,1.1726\H,0,1.4511,0.5131,-0.290
 4\H,0,0.2663,-0.8837,1.9516\Br,0,-0.2725,1.5615,2.1636\C,0,-1.1285,-1.
 9099,-0.0981\C,0,-0.9455,-2.344,-1.4191\C,0,-1.1402,-3.684,-1.7606\C,0

 Normal termination of Gaussian 16 at Sat Jul 29 12:03:22 2023.
