 Gaussian 16, Revision C.01,
 Gaussian 16:  ES64L-G16RevC.01  3-Jul-2019

 ----------------------------------
 # pm6 scrf=(iefpcm, solvent=water)
 ----------------------------------

 ---------------------------
 MA1_1_b3lyp.out,Ph,Me,H,OMe
 ---------------------------
 Symbolic Z-matrix:
 Charge =  0 Multiplicity = 1

                         Standard orientation:
 ---------------------------------------------------------------------
 Center     Atomic      Atomic             Coordinates (Angstroms)
 Number     Number       Type             X           Y           Z
 ---------------------------------------------------------------------
      1          6           0       -0.879275   -0.554589   -0.057444
      2          6           0       -2.310968   -0.566975    0.326876
      3          8           0       -2.839018    0.060483    1.228069
      4          6           0        0.054617    0.360563    0.349405
      5          6           0       -1.209417    2.684067   -1.214705
      6          1           0       -1.447930    3.295970   -0.340765
      7          1           0       -0.913645    3.345724   -2.034082
      8          1           0       -2.105668    2.133526   -1.513077
      9          7           0       -0.121775    1.746697   -0.901874
     10          1           0        0.127557    1.305570   -1.791002
     11          1           0        0.701842    2.320935   -0.689755
     12          6           0        1.510573   -0.089698    0.147328
     13          6           0        1.957701   -0.608534   -1.084505
     14          6           0        3.283982   -1.012614   -1.268104
     15          6           0        4.194592   -0.908936   -0.222187
     16          6           0        3.778416   -0.403401    1.005280
     17          6           0        2.451111    0.001288    1.187293
     18          1           0        1.276304   -0.698557   -1.926414
     19          1           0        3.602290   -1.408039   -2.229038
     20          1           0        5.225120   -1.223892   -0.361474
     21          1           0        4.484142   -0.325456    1.828414
     22          1           0        2.168578    0.374956    2.167561
     23          6           0       -0.222939    1.229461    1.598714
     24          1           0       -1.177479    1.760873    1.541450
     25          1           0       -0.232262    0.604778    2.499171
     26          1           0        0.547376    1.999464    1.726712
     27          1           0       -0.611360   -1.357028   -0.735679
     28          8           0       -2.943871   -1.433708   -0.510911
     29          6           0       -4.343280   -1.557441   -0.258093
     30          1           0       -4.756783   -2.265919   -0.981214
     31          1           0       -4.518442   -1.949288    0.748759
     32          1           0       -4.844793   -0.593842   -0.392853
 ---------------------------------------------------------------------

 SCF Done:  E(RPM6) = -0.881182105284E-01 A.U. after   17 cycles

 The electronic state is 1-A.
 Alpha  occ. eigenvalues --   -1.19188  -1.16163  -1.12333  -1.10573  -1.03374
 Alpha  occ. eigenvalues --   -0.97374  -0.96441  -0.93620  -0.89284  -0.88157
 Alpha  occ. eigenvalues --   -0.81949  -0.78816  -0.76195  -0.69046  -0.66009
 Alpha  occ. eigenvalues --   -0.65031  -0.62975  -0.61437  -0.60119  -0.59677
 Alpha  occ. eigenvalues --   -0.58321  -0.57166  -0.55667  -0.54625  -0.52956
 Alpha  occ. eigenvalues --   -0.52064  -0.51552  -0.50691  -0.49382  -0.49284
 Alpha  occ. eigenvalues --   -0.48176  -0.47598  -0.46553  -0.44798  -0.44589
 Alpha  occ. eigenvalues --   -0.43570  -0.41682  -0.39566  -0.36699  -0.36629
 Alpha  occ. eigenvalues --   -0.32121
 Alpha virt. eigenvalues --   -0.01077   0.00186   0.02839   0.06218   0.06637
 Alpha virt. eigenvalues --    0.08799   0.11936   0.12444   0.12933   0.13645
 Alpha virt. eigenvalues --    0.15421   0.15971   0.16662   0.17367   0.17715

 Mulliken charges:
               1
     1  C   -0.766593
     2  C    0.728426
     3  O   -0.666569
     4  C    0.503917
     5  C   -0.372701
     6  H    0.173856
     7  H    0.164000
     8  H    0.174013
     9  N   -0.314519
    10  H    0.223303
    11  H    0.220111
    12  C   -0.112986
    13  C   -0.138682
    14  C   -0.155702
    15  C   -0.133503
    16  C   -0.157422
    17  C   -0.135106
    18  H    0.155408
    19  H    0.157702
    20  H    0.155263
    21  H    0.157478
    22  H    0.158205
    23  C   -0.550930
    24  H    0.187269
    25  H    0.175483
    26  H    0.166458
    27  H    0.196948
    28  O   -0.442133
    29  C   -0.208907
    30  H    0.162102
    31  H    0.147851
    32  H    0.147959
 Sum of Mulliken charges =  -0.00000

 Dipole moment (field-independent basis, Debye):
    X=              4.5263    Y=              4.7052    Z=             -4.0113  Tot=              7.6627
 N-N= 5.737160333140D+02 E-N=-9.481446976982D+02  KE=-1.463908879554D+02
 Unable to Open any file for archive entry.
 1\1\GINC-NODE-004\SP\RPM6\ZDO\C12H17N1O2\TLA25\29-Jul-2023\0\\# pm6 sc
 rf=(iefpcm, solvent=water)\\MA1_1_b3lyp.out,Ph,Me,H,OMe\\0,1\C,0,-0.03
 14,-1.0622,-0.0457\C,0,-1.1718,-0.2703,-0.5653\O,0,-1.5707,0.8059,-0.1
 562\C,0,0.942,-0.6083,0.8038\C,0,2.1753,1.3003,-1.2648\H,0,1.9733,2.21
 98,-0.7091\H,0,3.1363,1.4056,-1.7767\H,0,1.3908,1.1632,-2.0139\N,0,2.2
 098,0.1483,-0.3531\H,0,2.526,-0.6433,-0.9194\H,0,2.9992,0.3074,0.283\C
 ,0,1.7441,-1.721,1.498\C,0,2.3042,-2.7901,0.7701\C,0,3.0382,-3.7986,1.
 4027\C,0,3.2277,-3.7624,2.7799\C,0,2.6825,-2.72,3.5226\C,0,1.9489,-1.7

 Normal termination of Gaussian 16 at Sat Jul 29 12:32:59 2023.
