 Gaussian 16, Revision C.01,
 Gaussian 16:  ES64L-G16RevC.01  3-Jul-2019

 ----------------------------------------------------------------------
 # wb97xd def2svp geom=allchk scrf=(iefpcm,solvent=toluene) opt=(calcfc
 ,ts,noeigen,maxcycles=50,maxstep=10)
 ----------------------------------------------------------------------

 Structure from the checkpoint file:  "BPA_TS_1_opt_dft_re.chk"
 --------------------
 BPA_TS_1_opt_dft.out
 --------------------
 Charge =  0 Multiplicity = 1

 SCF Done:  E(RwB97XD) =  -3050.65530646     A.U. after   14 cycles

  Exact polarizability:       0.000       0.000       0.000       0.000       0.000       0.000
 Approx polarizability:     683.326      -7.011     626.418     -45.934      77.137     627.863

 SCF Done:  E(RwB97XD) =  -3050.65533585     A.U. after   10 cycles
 SCF Done:  E(RwB97XD) =  -3050.65534474     A.U. after   10 cycles
 SCF Done:  E(RwB97XD) =  -3050.65534760     A.U. after    9 cycles
 SCF Done:  E(RwB97XD) =  -3050.65534819     A.U. after    9 cycles
 SCF Done:  E(RwB97XD) =  -3050.65534871     A.U. after    9 cycles
 SCF Done:  E(RwB97XD) =  -3050.65534878     A.U. after    7 cycles
 SCF Done:  E(RwB97XD) =  -3050.65534872     A.U. after    7 cycles
 SCF Done:  E(RwB97XD) =  -3050.65534875     A.U. after    6 cycles
 Optimization completed.
    -- Stationary point found.

                         Standard orientation:
 ---------------------------------------------------------------------
 Center     Atomic      Atomic             Coordinates (Angstroms)
 Number     Number       Type             X           Y           Z
 ---------------------------------------------------------------------
      1          6           0       -1.096507    0.624063   -2.207369
      2          6           0       -0.869698    1.775597   -1.474051
      3          6           0        0.450956    3.800728   -0.769379
      4          6           0        2.895325    2.488281   -1.594235
      5          8           0       -1.665488    2.130787   -0.501922
      6          1           0        1.340831    4.402156   -0.998333
      7          1           0        0.481378    3.525094    0.294274
      8          1           0       -0.426251    4.441397   -0.931717
      9          8           0        3.685907    2.709159   -0.713629
     10          8           0        3.007084    2.971733   -2.827163
     11          6           0        4.159163    3.757758   -3.103412
     12          1           0        5.072631    3.162503   -2.967030
     13          1           0        4.069520    4.076462   -4.147034
     14          1           0        4.201201    4.632447   -2.439152
     15         14           0       -3.237587    2.863813   -0.467056
     16          6           0       -3.187674    4.022823    0.988004
     17          1           0       -4.036429    4.722355    0.935160
     18          1           0       -3.259871    3.475064    1.938740
     19          1           0       -2.255733    4.606657    0.994371
     20          6           0       -3.383015    3.772139   -2.093155
     21          1           0       -4.384708    4.219421   -2.190624
     22          1           0       -3.233156    3.094548   -2.947751
     23          1           0       -2.644204    4.585501   -2.161069
     24          6           0       -4.546379    1.514906   -0.250174
     25          6           0       -4.036528    0.480237    0.764242
     26          1           0       -4.785626   -0.316000    0.914482
     27          1           0       -3.104486   -0.001563    0.432802
     28          1           0       -3.842425    0.928090    1.752584
     29          6           0       -5.833111    2.172611    0.282026
     30          1           0       -5.688294    2.622755    1.276168
     31          1           0       -6.628747    1.414391    0.378584
     32          1           0       -6.212606    2.956921   -0.394080
     33          6           0       -4.855067    0.837889   -1.594643
     34          1           0       -5.605290    0.040554   -1.453953
     35          1           0       -5.270072    1.549635   -2.325368
     36          1           0       -3.966933    0.373098   -2.048865
     37          6           0        1.638816    1.628610   -1.449443
     38          6           0        0.388636    2.563833   -1.656629
     39          6           0       -0.268397    0.276105   -3.274129
     40          8           0        1.677025    0.620933   -2.394856
     41          1           0        1.626808    1.236801   -0.420743
     42          6           0       -0.229553   -1.092822   -3.834886
     43          1           0       -1.823196   -0.100372   -1.831789
     44          1           0        0.447843    2.861466   -2.718231
     45          6           0        1.957913    3.031552    2.775713
     46          6           0        0.780682    3.651838    3.110764
     47          6           0       -0.442867    2.957422    2.960661
     48          6           0       -0.466959    1.665908    2.492084
     49          1           0        2.910637    3.559008    2.862438
     50          1           0        0.782509    4.679564    3.479750
     51          1           0       -1.377760    3.459140    3.214337
     52          1           0       -1.420250    1.154602    2.358830
     53          6           0        1.967204    1.688844    2.307823
     54          6           0        0.739133    0.977082    2.180226
     55          6           0        0.773996   -0.388264    1.734716
     56          6           0        1.991563   -0.938074    1.367205
     57          6           0        3.225818   -0.227623    1.465910
     58          6           0        3.184945    1.058268    1.949894
     59          8           0        2.014402   -2.212103    0.888032
     60          1           0        4.112841    1.624573    2.046913
     61          6           0       -2.841706   -2.684962    1.273888
     62          6           0       -1.980696   -2.547403    0.211556
     63          6           0       -0.762779   -1.831468    0.416620
     64          6           0       -0.456320   -1.223551    1.624942
     65          1           0       -3.784165   -3.220048    1.132809
     66          8           0        0.083901   -1.691855   -0.639319
     67          6           0       -1.321871   -1.445765    2.748147
     68          6           0       -2.533558   -2.169409    2.557995
     69          6           0       -3.410767   -2.370067    3.659201
     70          6           0       -3.092026   -1.900515    4.908913
     71          6           0       -1.866636   -1.221488    5.111769
     72          6           0       -1.005933   -1.002194    4.063652
     73          1           0       -4.341854   -2.917517    3.492326
     74          1           0       -3.769996   -2.063933    5.749230
     75          1           0       -1.598304   -0.876336    6.112585
     76          1           0       -0.059866   -0.489791    4.240635
     77          6           0        6.989027   -1.902072    0.247218
     78          6           0        6.107044   -2.662722    1.014954
     79          6           0        4.877967   -2.135899    1.403391
     80          6           0        4.512949   -0.833963    1.033297
     81          6           0        5.404959   -0.077306    0.260744
     82          6           0        6.633160   -0.607936   -0.128978
     83          1           0        7.949840   -2.320434   -0.061237
     84          1           0        6.376281   -3.678390    1.313160
     85          1           0        4.193203   -2.741264    1.998121
     86          1           0        5.118169    0.929296   -0.051658
     87          1           0        7.312796   -0.007414   -0.738081
     88         15           0        1.559421   -2.479489   -0.678575
     89          8           0        1.424736   -3.942338   -0.860204
     90          8           0        2.372544   -1.606829   -1.607905
     91          1           0        1.987309   -0.291671   -2.006036
     92          6           0       -3.163495   -3.919231   -3.684325
     93          6           0       -1.970981   -4.377184   -3.121629
     94          6           0       -1.566093   -3.942888   -1.860557
     95          6           0       -2.363664   -3.044505   -1.138789
     96          6           0       -3.567320   -2.601771   -1.703244
     97          6           0       -3.963431   -3.028334   -2.970479
     98          1           0       -3.469257   -4.258704   -4.676606
     99          1           0       -1.339765   -5.077707   -3.672985
    100          1           0       -0.615267   -4.283510   -1.443327
    101          1           0       -4.193100   -1.904478   -1.142781
    102          1           0       -4.900233   -2.663185   -3.398019
    103          1           0        0.166290    1.064909   -3.887208
    104          1           0        0.774802   -1.507099   -3.645486
    105          1           0       -0.958823   -1.757953   -3.357307
    106          1           0       -0.371553   -1.072447   -4.924988
 ---------------------------------------------------------------------

 The electronic state is 1-A.
 Alpha  occ. eigenvalues --  -77.33514 -66.30558 -19.31737 -19.30697 -19.27872
 Alpha  occ. eigenvalues --  -19.27609 -19.27299 -19.26021 -19.20692 -19.18850
 Alpha  occ. eigenvalues --  -10.43749 -10.42716 -10.39027 -10.37811 -10.36710
 Alpha  occ. eigenvalues --  -10.36593 -10.36159 -10.34239 -10.32079 -10.31860
 Alpha  occ. eigenvalues --  -10.31581 -10.31555 -10.31526 -10.31379 -10.31228
 Alpha  occ. eigenvalues --  -10.31203 -10.31175 -10.31089 -10.31076 -10.30989
 Alpha  occ. eigenvalues --  -10.30890 -10.30740 -10.30729 -10.30725 -10.30618
 Alpha  occ. eigenvalues --  -10.30600 -10.30526 -10.30522 -10.30492 -10.30454
 Alpha  occ. eigenvalues --  -10.30449 -10.30368 -10.30362 -10.30318 -10.30317
 Alpha  occ. eigenvalues --  -10.30312 -10.30186 -10.30076 -10.29967 -10.29815
 Alpha  occ. eigenvalues --  -10.29592 -10.29299 -10.29269 -10.29242 -10.29149
 Alpha  occ. eigenvalues --  -10.29078 -10.29035  -6.76943  -5.43163  -4.92387
 Alpha  occ. eigenvalues --   -4.92219  -4.91973  -3.78309  -3.77802  -3.77747
 Alpha  occ. eigenvalues --   -1.22086  -1.18166  -1.17995  -1.13360  -1.13013
 Alpha  occ. eigenvalues --   -1.12381  -1.06007  -1.01334  -0.98271  -0.97241
 Alpha  occ. eigenvalues --   -0.95502  -0.94951  -0.94715  -0.92284  -0.91877
 Alpha  occ. eigenvalues --   -0.91645  -0.91190  -0.89795  -0.86092  -0.85589
 Alpha  occ. eigenvalues --   -0.85424  -0.85289  -0.84164  -0.83642  -0.83065
 Alpha  occ. eigenvalues --   -0.82727  -0.81970  -0.81678  -0.81086  -0.79694
 Alpha  occ. eigenvalues --   -0.79547  -0.78739  -0.78509  -0.78153  -0.75805
 Alpha  occ. eigenvalues --   -0.74823  -0.72951  -0.72599  -0.72329  -0.71136
 Alpha  occ. eigenvalues --   -0.70654  -0.69290  -0.68610  -0.68405  -0.67680
 Alpha  occ. eigenvalues --   -0.67306  -0.66925  -0.66630  -0.65961  -0.65153
 Alpha  occ. eigenvalues --   -0.64536  -0.63620  -0.62970  -0.62404  -0.62219
 Alpha  occ. eigenvalues --   -0.61664  -0.61539  -0.60633  -0.60332  -0.58283
 Alpha  occ. eigenvalues --   -0.58040  -0.57750  -0.57388  -0.56748  -0.56614
 Alpha  occ. eigenvalues --   -0.56496  -0.56047  -0.55247  -0.54586  -0.54248
 Alpha  occ. eigenvalues --   -0.54173  -0.53894  -0.53775  -0.53661  -0.53403
 Alpha  occ. eigenvalues --   -0.53096  -0.52753  -0.52650  -0.52434  -0.52239
 Alpha  occ. eigenvalues --   -0.51979  -0.51646  -0.51513  -0.51261  -0.51154
 Alpha  occ. eigenvalues --   -0.50798  -0.50730  -0.50523  -0.50203  -0.50138
 Alpha  occ. eigenvalues --   -0.49932  -0.49652  -0.49435  -0.49213  -0.49040
 Alpha  occ. eigenvalues --   -0.48853  -0.48362  -0.48177  -0.48109  -0.47806
 Alpha  occ. eigenvalues --   -0.47559  -0.47477  -0.47320  -0.47196  -0.47044
 Alpha  occ. eigenvalues --   -0.46218  -0.45747  -0.45630  -0.45248  -0.45185
 Alpha  occ. eigenvalues --   -0.44925  -0.44217  -0.44125  -0.43497  -0.43087
 Alpha  occ. eigenvalues --   -0.43006  -0.42871  -0.42663  -0.42501  -0.42356
 Alpha  occ. eigenvalues --   -0.42075  -0.42034  -0.41947  -0.41478  -0.40856
 Alpha  occ. eigenvalues --   -0.40549  -0.40346  -0.40000  -0.39427  -0.39261
 Alpha  occ. eigenvalues --   -0.38819  -0.37829  -0.37303  -0.36733  -0.36463
 Alpha  occ. eigenvalues --   -0.35895  -0.35319  -0.34473  -0.34118  -0.33916
 Alpha  occ. eigenvalues --   -0.33648  -0.33073  -0.32095  -0.30605  -0.29907
 Alpha  occ. eigenvalues --   -0.29266  -0.27917
 Alpha virt. eigenvalues --   -0.03561   0.00633   0.01606   0.03679   0.04272
 Alpha virt. eigenvalues --    0.05903   0.05953   0.06848   0.07176   0.07932
 Alpha virt. eigenvalues --    0.08571   0.09326   0.10079   0.10623   0.11926

 Mulliken charges:
               1
     1  C   -0.084334
     2  C    0.209715
     3  C    0.039879
     4  C    0.211775
     5  O   -0.429045
     6  H    0.055802
     7  H    0.064206
     8  H    0.047673
     9  O   -0.241356
    10  O   -0.328796
    11  C    0.128804
    12  H    0.064723
    13  H    0.063811
    14  H    0.055003
    15  Si   0.689221
    16  C   -0.273304
    17  H    0.080144
    18  H    0.081844
    19  H    0.076897
    20  C   -0.297321
    21  H    0.085660
    22  H    0.075993
    23  H    0.075543
    24  C   -0.524364
    25  C    0.026581
    26  H    0.035576
    27  H    0.044755
    28  H    0.049710
    29  C    0.010947
    30  H    0.040247
    31  H    0.037269
    32  H    0.040932
    33  C    0.021135
    34  H    0.042530
    35  H    0.036550
    36  H    0.023907
    37  C    0.222253
    38  C   -0.188376
    39  C    0.053590
    40  O   -0.361055
    41  H    0.042019
    42  C    0.003585
    43  H    0.051862
    44  H    0.073151
    45  C   -0.042894
    46  C   -0.023024
    47  C   -0.024639
    48  C   -0.015465
    49  H    0.018057
    50  H    0.023843
    51  H    0.015380
    52  H   -0.003581
    53  C    0.013047
    54  C    0.011427
    55  C    0.011329
    56  C    0.077714
    57  C    0.056680
    58  C   -0.063244
    59  O   -0.452533
    60  H    0.008341
    61  C   -0.093562
    62  C    0.039512
    63  C    0.128274
    64  C    0.022877
    65  H    0.005477
    66  O   -0.492477
    67  C    0.020608
    68  C    0.036908
    69  C   -0.046857
    70  C   -0.018251
    71  C   -0.018481
    72  C   -0.041207
    73  H    0.013547
    74  H    0.026438
    75  H    0.026881
    76  H    0.028986
    77  C   -0.020560
    78  C   -0.030274
    79  C   -0.012193
    80  C    0.012956
    81  C   -0.041881
    82  C   -0.025983
    83  H    0.023958
    84  H    0.026204
    85  H    0.026795
    86  H    0.014655
    87  H    0.018248
    88  P    1.124205
    89  O   -0.522347
    90  O   -0.603797
    91  H    0.261153
    92  C   -0.022982
    93  C   -0.036626
    94  C   -0.028246
    95  C   -0.000885
    96  C   -0.027541
    97  C   -0.030856
    98  H    0.027193
    99  H    0.032416
   100  H    0.033178
   101  H   -0.013923
   102  H    0.022087
   103  H    0.074533
   104  H    0.094786
   105  H    0.072407
   106  H    0.068868
 Sum of Mulliken charges =  -0.00000

 Dipole moment (field-independent basis, Debye):
    X=             -8.6576    Y=             13.4055    Z=             -4.0340  Tot=             16.4600
 Quadrupole moment (field-independent basis, Debye-Ang):
   XX=           -323.5842   YY=           -344.8105   ZZ=           -320.7951
   XY=              8.9380   XZ=             -3.8353   YZ=            -12.6555

 Normal termination of Gaussian 16 at Fri Dec 22 01:13:02 2023.
