 Gaussian 16, Revision C.01,
 Gaussian 16:  ES64L-G16RevC.01  3-Jul-2019

 ----------------------------------------------------------------------
 # wb97xd def2svp geom=allchk scrf=(iefpcm,solvent=toluene) opt=(calcfc
 ,ts,noeigen,maxcycles=50,maxstep=10)
 ----------------------------------------------------------------------

 Structure from the checkpoint file:  "da-2_1_opt_dft_re.chk"
 -----------------------
 1d_2b_endo_2_reopt3.out
 -----------------------
 Charge =  0 Multiplicity = 1

 SCF Done:  E(RwB97XD) =  -573.998631054     A.U. after   14 cycles

  Exact polarizability:       0.000       0.000       0.000       0.000       0.000       0.000
 Approx polarizability:     132.101      41.227     110.935      -1.474       6.162     107.661

 SCF Done:  E(RwB97XD) =  -573.998631339     A.U. after    9 cycles
 Optimization completed.
    -- Stationary point found.

                         Standard orientation:
 ---------------------------------------------------------------------
 Center     Atomic      Atomic             Coordinates (Angstroms)
 Number     Number       Type             X           Y           Z
 ---------------------------------------------------------------------
      1          6           0       -2.175083    0.626786    0.274469
      2          6           0        0.331477   -1.042756    1.263336
      3          6           0        0.199566    2.576043    0.371568
      4          6           0        1.378763   -0.218360    1.329128
      5          6           0       -1.408846    1.012025   -0.760589
      6          6           0       -0.320172    1.993974   -0.719622
      7          1           0        1.026514    3.284292    0.287271
      8          1           0       -0.181893    2.379368    1.377613
      9          1           0       -2.024289    1.107374    1.248404
     10          1           0       -0.363657   -1.348567    2.042662
     11          1           0        1.775866    0.336297    2.176761
     12          8           0        1.256575   -0.971566   -0.853174
     13          6           0        0.241724   -1.556248   -0.132067
     14          6           0        2.005776   -0.166228   -0.021708
     15          8           0       -0.512540   -2.341436   -0.614821
     16          8           0        2.977082    0.407167   -0.397801
     17          6           0       -3.246173   -0.422730    0.186797
     18          1           0       -4.037571   -0.127342   -0.520150
     19          1           0       -2.828306   -1.377514   -0.170986
     20          1           0       -3.719713   -0.600988    1.161360
     21          1           0       -1.582254    0.540074   -1.734496
     22          1           0        0.124169    2.238665   -1.689940
 ---------------------------------------------------------------------

 The electronic state is 1-A.
 Alpha  occ. eigenvalues --  -19.33314 -19.28007 -19.27860 -10.46132 -10.46013
 Alpha  occ. eigenvalues --  -10.35481 -10.35402 -10.31562 -10.31364 -10.30625
 Alpha  occ. eigenvalues --  -10.30593 -10.29895  -1.25212  -1.17961  -1.14138
 Alpha  occ. eigenvalues --   -0.94334  -0.91226  -0.85508  -0.79637  -0.77621
 Alpha  occ. eigenvalues --   -0.73531  -0.69444  -0.68739  -0.62073  -0.60672
 Alpha  occ. eigenvalues --   -0.60452  -0.57624  -0.56917  -0.55626  -0.54403
 Alpha  occ. eigenvalues --   -0.53381  -0.51997  -0.50503  -0.49793  -0.49496
 Alpha  occ. eigenvalues --   -0.47774  -0.43648  -0.43487  -0.42989  -0.42038
 Alpha  occ. eigenvalues --   -0.41094  -0.39126  -0.38144  -0.31111
 Alpha virt. eigenvalues --   -0.03733   0.02282   0.10936   0.12123   0.13695
 Alpha virt. eigenvalues --    0.15356   0.15896   0.16192   0.17118   0.19449
 Alpha virt. eigenvalues --    0.21090   0.21496   0.22497   0.24150   0.25023

 Mulliken charges:
               1
     1  C   -0.133930
     2  C   -0.066400
     3  C   -0.077066
     4  C   -0.080361
     5  C   -0.054527
     6  C   -0.070353
     7  H    0.067893
     8  H    0.045243
     9  H    0.036120
    10  H    0.074561
    11  H    0.077007
    12  O   -0.288189
    13  C    0.294732
    14  C    0.293760
    15  O   -0.177955
    16  O   -0.170945
    17  C   -0.026387
    18  H    0.064838
    19  H    0.064899
    20  H    0.042643
    21  H    0.036620
    22  H    0.047797
 Sum of Mulliken charges =  -0.00000

 Dipole moment (field-independent basis, Debye):
    X=             -1.8597    Y=              1.0031    Z=              4.0813  Tot=              4.5959
 Quadrupole moment (field-independent basis, Debye-Ang):
   XX=            -75.5127   YY=            -75.0170   ZZ=            -64.6437
   XY=             -0.9644   XZ=              3.5221   YZ=             -3.3631

 Normal termination of Gaussian 16 at Fri Dec 22 23:18:29 2023.
