 Gaussian 16, Revision C.01,
 Gaussian 16:  ES64L-G16RevC.01  3-Jul-2019

 ----------------------------------------------------------------------
 # wb97xd def2svp scrf=(iefpcm,solvent=toluene) opt=(calcfc,ts,noeigen,
 maxcycles=50,maxstep=10)
 ----------------------------------------------------------------------

 ---------------------
 3g_exo_ts_6_reopt.out
 ---------------------
 Symbolic Z-matrix:
 Charge =  0 Multiplicity = 1

 SCF Done:  E(RwB97XD) =  -3165.52644361     A.U. after   16 cycles

  Exact polarizability:       0.000       0.000       0.000       0.000       0.000       0.000
 Approx polarizability:     164.886     -13.094     156.735      -4.969     -21.067     141.421

 SCF Done:  E(RwB97XD) =  -3165.53481908     A.U. after   15 cycles
 SCF Done:  E(RwB97XD) =  -3165.53951433     A.U. after   15 cycles
 SCF Done:  E(RwB97XD) =  -3165.54137628     A.U. after   13 cycles
 SCF Done:  E(RwB97XD) =  -3165.54115538     A.U. after   14 cycles
 SCF Done:  E(RwB97XD) =  -3165.54154641     A.U. after   14 cycles
 SCF Done:  E(RwB97XD) =  -3165.54157642     A.U. after   12 cycles
 SCF Done:  E(RwB97XD) =  -3165.54157299     A.U. after   12 cycles
 SCF Done:  E(RwB97XD) =  -3165.54149665     A.U. after   14 cycles
 SCF Done:  E(RwB97XD) =  -3165.54143308     A.U. after   13 cycles
 SCF Done:  E(RwB97XD) =  -3165.54154329     A.U. after   10 cycles
 SCF Done:  E(RwB97XD) =  -3165.54154336     A.U. after    8 cycles
 SCF Done:  E(RwB97XD) =  -3165.54154331     A.U. after    9 cycles
 SCF Done:  E(RwB97XD) =  -3165.54154333     A.U. after    7 cycles
 SCF Done:  E(RwB97XD) =  -3165.54154328     A.U. after    9 cycles
 SCF Done:  E(RwB97XD) =  -3165.54154331     A.U. after    8 cycles
 SCF Done:  E(RwB97XD) =  -3165.54154328     A.U. after    9 cycles
 SCF Done:  E(RwB97XD) =  -3165.54154331     A.U. after    8 cycles
 SCF Done:  E(RwB97XD) =  -3165.54154330     A.U. after    8 cycles
 SCF Done:  E(RwB97XD) =  -3165.54154334     A.U. after    9 cycles
 Optimization completed.
    -- Stationary point found.

                         Standard orientation:
 ---------------------------------------------------------------------
 Center     Atomic      Atomic             Coordinates (Angstroms)
 Number     Number       Type             X           Y           Z
 ---------------------------------------------------------------------
      1          6           0       -2.055770   -2.094769   -0.336732
      2          6           0        0.386980   -0.584243    1.612730
      3          6           0       -2.056071    0.124720   -0.676029
      4          6           0       -0.281865    0.574909    1.567990
      5          6           0       -3.062654   -1.567209    0.444136
      6          6           0       -3.065388   -0.161919    0.228502
      7          6           0       -1.548258    1.438853   -1.190182
      8          1           0       -0.724231    1.260727   -1.896950
      9          1           0       -2.337078    1.954128   -1.759631
     10          6           0       -1.071224    2.389521   -0.080617
     11          1           0       -0.701211    3.333424   -0.504212
     12          1           0       -1.926863    2.634036    0.573769
     13          6           0        0.020273    1.850052    0.822162
     14          8           0        1.035784    2.460267    1.053685
     15          1           0       -1.152516    0.655649    2.227540
     16          1           0        0.063206   -1.352285    2.320244
     17          6           0        1.571622   -1.031313    0.857974
     18          8           0        2.290125   -1.913275    1.183899
     19          7           0       -1.472565   -1.062298   -1.016679
     20          1           0       -0.664106   -1.146063   -1.620263
     21          1           0       -1.725717   -3.120883   -0.478013
     22         35           0        1.922947   -0.149332   -0.883572
     23          1           0       -3.729513   -2.132075    1.092085
     24          1           0       -3.730308    0.568496    0.686926
 ---------------------------------------------------------------------

 The electronic state is 1-A.
 Alpha  occ. eigenvalues -- -483.06641 -62.64872 -56.45598 -56.45315 -56.45280
 Alpha  occ. eigenvalues --  -19.29965 -19.26608 -14.49555 -10.45745 -10.41014
 Alpha  occ. eigenvalues --  -10.34946 -10.34311 -10.33036 -10.32326 -10.32322
 Alpha  occ. eigenvalues --  -10.31916 -10.28808 -10.28777  -8.81820  -6.64231
 Alpha  occ. eigenvalues --   -6.63169  -6.63056  -2.74624  -2.74345  -2.74258
 Alpha  occ. eigenvalues --   -2.73413  -2.73411  -1.19628  -1.15515  -1.08133
 Alpha  occ. eigenvalues --   -0.93083  -0.90652  -0.88335  -0.87013  -0.82600
 Alpha  occ. eigenvalues --   -0.78383  -0.74240  -0.68315  -0.67961  -0.66538
 Alpha  occ. eigenvalues --   -0.62006  -0.60955  -0.59638  -0.58488  -0.56164
 Alpha  occ. eigenvalues --   -0.55134  -0.54307  -0.53586  -0.52195  -0.51886
 Alpha  occ. eigenvalues --   -0.50846  -0.49974  -0.48101  -0.47570  -0.46975
 Alpha  occ. eigenvalues --   -0.45602  -0.44047  -0.39224  -0.38860  -0.38149
 Alpha  occ. eigenvalues --   -0.37201  -0.35018  -0.33368  -0.29255
 Alpha virt. eigenvalues --   -0.02312   0.04108   0.06151   0.09763   0.11658
 Alpha virt. eigenvalues --    0.13408   0.13802   0.14794   0.15692   0.17575
 Alpha virt. eigenvalues --    0.19704   0.20164   0.20581   0.21565   0.23374

 Mulliken charges:
               1
     1  C    0.027606
     2  C   -0.039792
     3  C   -0.083672
     4  C    0.025393
     5  C   -0.077344
     6  C   -0.113457
     7  C    0.112121
     8  H    0.026469
     9  H    0.058468
    10  C   -0.034531
    11  H    0.056266
    12  H    0.074564
    13  C    0.062871
    14  O   -0.206335
    15  H    0.088571
    16  H    0.078410
    17  C    0.121204
    18  O   -0.142419
    19  N   -0.115803
    20  H    0.148861
    21  H    0.042442
    22  Br  -0.144971
    23  H    0.023144
    24  H    0.011936
 Sum of Mulliken charges =  -0.00000

 Dipole moment (field-independent basis, Debye):
    X=             -3.9757    Y=              0.2494    Z=             -0.7863  Tot=              4.0604
 Quadrupole moment (field-independent basis, Debye-Ang):
   XX=           -103.8719   YY=            -94.4476   ZZ=            -88.4533
   XY=             -4.2590   XZ=             -6.6460   YZ=             -1.3914

 Normal termination of Gaussian 16 at Fri Dec 22 17:59:35 2023.
