 Gaussian 16, Revision C.01,
 Gaussian 16:  ES64L-G16RevC.01  3-Jul-2019

 ----------------------------------------------------------------------
 # wb97xd def2svp geom=allchk scrf=(iefpcm,solvent=toluene) opt=(calcfc
 ,ts,noeigen,maxcycles=50,maxstep=10)
 ----------------------------------------------------------------------

 Structure from the checkpoint file:  "imda-1_1_opt_dft_re.chk"
 -----------------------
 3a_exo_ts_26_reopt2.out
 -----------------------
 Charge =  0 Multiplicity = 1

 SCF Done:  E(RwB97XD) =  -961.702758416     A.U. after   15 cycles

  Exact polarizability:       0.000       0.000       0.000       0.000       0.000       0.000
 Approx polarizability:     131.985      -9.309     144.497     -16.281     -15.208     139.024

 SCF Done:  E(RwB97XD) =  -961.702758128     A.U. after    8 cycles
 Optimization completed.
    -- Stationary point found.

                         Standard orientation:
 ---------------------------------------------------------------------
 Center     Atomic      Atomic             Coordinates (Angstroms)
 Number     Number       Type             X           Y           Z
 ---------------------------------------------------------------------
      1          6           0       -2.466904    0.314913   -0.219541
      2          6           0        0.988420    1.272095    1.116615
      3          6           0       -0.918705   -1.478436   -0.040698
      4          6           0        1.367749   -0.002531    1.098787
      5          6           0       -2.672170   -0.349997    0.939220
      6          6           0       -1.719716   -1.457368    1.046843
      7          6           0        0.227444   -2.404020   -0.322080
      8          1           0        0.463449   -2.978233    0.588173
      9          1           0       -0.074168   -3.148908   -1.078789
     10          6           0        1.487812   -1.714587   -0.857062
     11          1           0        2.261086   -2.451790   -1.119908
     12          1           0        1.250972   -1.190046   -1.800313
     13          6           0        2.164699   -0.663785    0.008524
     14          8           0        3.313964   -0.348817   -0.189713
     15          1           0        1.058612   -0.628483    1.941005
     16          1           0        0.413699    1.710020    1.933849
     17          6           0       -1.346618   -0.364315   -0.959437
     18          1           0       -1.687538   -0.754102   -1.936661
     19          1           0       -0.530028    0.344202   -1.183205
     20         17           0        1.283931    2.383836   -0.187698
     21          6           0       -3.171878    1.524170   -0.739809
     22          1           0       -2.465397    2.359150   -0.879800
     23          1           0       -3.960841    1.855433   -0.050116
     24          1           0       -3.634453    1.329775   -1.721310
     25          1           0       -1.651603   -2.139907    1.896751
     26          1           0       -3.423133   -0.098611    1.690719
 ---------------------------------------------------------------------

 The electronic state is 1-A.
 Alpha  occ. eigenvalues -- -101.68792 -19.25543 -10.40038 -10.36777 -10.32225
 Alpha  occ. eigenvalues --  -10.31259 -10.31231 -10.30185 -10.30079 -10.30049
 Alpha  occ. eigenvalues --  -10.29685 -10.29206 -10.29009  -9.59535  -7.34903
 Alpha  occ. eigenvalues --   -7.33980  -7.33911  -1.14499  -0.97844  -0.96150
 Alpha  occ. eigenvalues --   -0.89929  -0.86025  -0.83820  -0.79555  -0.77587
 Alpha  occ. eigenvalues --   -0.72959  -0.70511  -0.62719  -0.61631  -0.60762
 Alpha  occ. eigenvalues --   -0.59595  -0.57495  -0.55478  -0.54846  -0.53432
 Alpha  occ. eigenvalues --   -0.52541  -0.49932  -0.49800  -0.48956  -0.48601
 Alpha  occ. eigenvalues --   -0.47407  -0.45887  -0.45351  -0.44686  -0.43064
 Alpha  occ. eigenvalues --   -0.42831  -0.41365  -0.40119  -0.38208  -0.34790
 Alpha  occ. eigenvalues --   -0.33873  -0.28291
 Alpha virt. eigenvalues --    0.02931   0.04843   0.07724   0.12607   0.13317
 Alpha virt. eigenvalues --    0.14514   0.15302   0.16454   0.17482   0.18562
 Alpha virt. eigenvalues --    0.19277   0.20641   0.21726   0.22245   0.22714

 Mulliken charges:
               1
     1  C   -0.223236
     2  C   -0.018728
     3  C   -0.206727
     4  C   -0.031251
     5  C   -0.061699
     6  C   -0.062614
     7  C    0.095774
     8  H    0.029745
     9  H    0.050424
    10  C   -0.057637
    11  H    0.062182
    12  H    0.078706
    13  C    0.071095
    14  O   -0.224344
    15  H    0.081336
    16  H    0.099690
    17  C    0.127703
    18  H    0.064240
    19  H    0.038960
    20  Cl  -0.102447
    21  C    0.051585
    22  H    0.045734
    23  H    0.035057
    24  H    0.045103
    25  H    0.005713
    26  H    0.005635
 Sum of Mulliken charges =  -0.00000

 Dipole moment (field-independent basis, Debye):
    X=             -3.0663    Y=             -1.3982    Z=              0.4630  Tot=              3.4017
 Quadrupole moment (field-independent basis, Debye-Ang):
   XX=            -98.8800   YY=            -80.9224   ZZ=            -77.0215
   XY=             -5.4603   XZ=              0.9969   YZ=              0.5646

 Normal termination of Gaussian 16 at Fri Dec 22 23:21:40 2023.
