 Gaussian 16, Revision C.01,
 Gaussian 16:  ES64L-G16RevC.01  3-Jul-2019

 ----------------------------------------------------------------------
 # wb97xd def2svp scrf=(iefpcm,solvent=toluene) opt=(calcfc,ts,noeigen,
 maxcycles=50,maxstep=10)
 ----------------------------------------------------------------------

 ----------
 TS-898.out
 ----------
 Symbolic Z-matrix:
 Charge =  0 Multiplicity = 1

 SCF Done:  E(RwB97XD) =  -864.693392011     A.U. after   16 cycles

  Exact polarizability:       0.000       0.000       0.000       0.000       0.000       0.000
 Approx polarizability:     120.118       4.289     107.102      -1.016      -0.150     102.809

 SCF Done:  E(RwB97XD) =  -864.702578785     A.U. after   14 cycles
 SCF Done:  E(RwB97XD) =  -864.710333594     A.U. after   13 cycles
 SCF Done:  E(RwB97XD) =  -864.716765917     A.U. after   13 cycles
 SCF Done:  E(RwB97XD) =  -864.721898132     A.U. after   13 cycles
 SCF Done:  E(RwB97XD) =  -864.725540987     A.U. after   14 cycles
 SCF Done:  E(RwB97XD) =  -864.727100108     A.U. after   14 cycles
 SCF Done:  E(RwB97XD) =  -864.726445433     A.U. after   13 cycles
 SCF Done:  E(RwB97XD) =  -864.725103053     A.U. after   12 cycles
 SCF Done:  E(RwB97XD) =  -864.727456678     A.U. after   13 cycles
 SCF Done:  E(RwB97XD) =  -864.737680943     A.U. after   12 cycles
 SCF Done:  E(RwB97XD) =  -864.737617108     A.U. after   12 cycles
 SCF Done:  E(RwB97XD) =  -864.737762179     A.U. after   12 cycles
 SCF Done:  E(RwB97XD) =  -864.737679470     A.U. after   13 cycles
 SCF Done:  E(RwB97XD) =  -864.737832864     A.U. after   12 cycles
 SCF Done:  E(RwB97XD) =  -864.737843078     A.U. after   10 cycles
 SCF Done:  E(RwB97XD) =  -864.737843923     A.U. after   10 cycles
 SCF Done:  E(RwB97XD) =  -864.737843994     A.U. after    9 cycles
 SCF Done:  E(RwB97XD) =  -864.737843974     A.U. after    8 cycles
 SCF Done:  E(RwB97XD) =  -864.737843918     A.U. after    8 cycles
 Optimization completed.
    -- Stationary point found.

                         Standard orientation:
 ---------------------------------------------------------------------
 Center     Atomic      Atomic             Coordinates (Angstroms)
 Number     Number       Type             X           Y           Z
 ---------------------------------------------------------------------
      1          6           0       -0.589033   -0.475343   -0.152372
      2          6           0       -1.831613    0.042242    0.367185
      3          8           0       -1.958380    0.881576    1.266418
      4          6           0        0.650980   -0.022944    0.353093
      5          6           0        0.683769    2.142462   -1.283241
      6          1           0        1.012806    2.550198   -2.247977
      7          1           0       -0.366550    1.821796   -1.352317
      8          1           0        0.770286    2.914913   -0.510483
      9          7           0        1.474666    0.975896   -0.900103
     10          1           0        1.585350    0.327429   -1.681642
     11          1           0        2.415025    1.217767   -0.580953
     12         17           0        1.998788   -1.302862    0.429622
     13          6           0        0.763417    0.838711    1.584025
     14          1           0        0.127918    1.725588    1.491222
     15          1           0        0.382933    0.276198    2.446310
     16          1           0        1.811391    1.111126    1.772462
     17          6           0       -0.610684   -1.439443   -1.320961
     18          1           0        0.393591   -1.834187   -1.530003
     19          1           0       -1.246743   -2.319372   -1.132066
     20          1           0       -0.984288   -0.980510   -2.255512
     21          6           0       -3.107566   -0.515447   -0.263968
     22          1           0       -3.187517   -1.602852   -0.109230
     23          1           0       -3.968068   -0.021799    0.204493
     24          1           0       -3.136780   -0.342945   -1.351067
 ---------------------------------------------------------------------

 The electronic state is 1-A.
 Alpha  occ. eigenvalues -- -101.66008 -19.18329 -14.53295 -10.40654 -10.35277
 Alpha  occ. eigenvalues --  -10.34213 -10.29622 -10.28403 -10.27306 -10.25549
 Alpha  occ. eigenvalues --   -9.56778  -7.32096  -7.31232  -7.31200  -1.07208
 Alpha  occ. eigenvalues --   -1.06384  -0.94769  -0.86176  -0.83061  -0.80246
 Alpha  occ. eigenvalues --   -0.78769  -0.73327  -0.67036  -0.65297  -0.60128
 Alpha  occ. eigenvalues --   -0.58360  -0.56003  -0.53705  -0.51968  -0.50907
 Alpha  occ. eigenvalues --   -0.49767  -0.49438  -0.47963  -0.46956  -0.46330
 Alpha  occ. eigenvalues --   -0.44967  -0.44101  -0.44047  -0.42679  -0.40557
 Alpha  occ. eigenvalues --   -0.38426  -0.37841  -0.28808  -0.25256
 Alpha virt. eigenvalues --    0.08288   0.08753   0.11083   0.14211   0.15418
 Alpha virt. eigenvalues --    0.16556   0.17186   0.19226   0.19766   0.20876
 Alpha virt. eigenvalues --    0.21499   0.22706   0.22946   0.24416   0.24953

 Mulliken charges:
               1
     1  C   -0.178061
     2  C    0.015598
     3  O   -0.353700
     4  C   -0.246959
     5  C    0.015691
     6  H    0.075709
     7  H    0.092144
     8  H    0.080396
     9  N   -0.147550
    10  H    0.176043
    11  H    0.174769
    12  Cl  -0.158548
    13  C    0.101497
    14  H    0.067545
    15  H    0.072619
    16  H    0.024649
    17  C    0.029597
    18  H    0.018014
    19  H    0.030527
    20  H    0.018176
    21  C   -0.021065
    22  H    0.046601
    23  H    0.034066
    24  H    0.032240
 Sum of Mulliken charges =  -0.00000

 Dipole moment (field-independent basis, Debye):
    X=              4.9616    Y=              2.7813    Z=             -4.8832  Tot=              7.4965
 Quadrupole moment (field-independent basis, Debye-Ang):
   XX=            -70.4233   YY=            -66.8965   ZZ=            -67.6846
   XY=             10.8650   XZ=              1.0697   YZ=             -4.9407

 Normal termination of Gaussian 16 at Mon Dec 18 20:50:15 2023.
