 Gaussian 16, Revision C.01,
 Gaussian 16:  ES64L-G16RevC.01  3-Jul-2019

 -----------------------------------------------------------
 # wb97xd def2svp scrf=(iefpcm,solvent=toluene) freq=noraman
 -----------------------------------------------------------

 ----------------------
 TS-325_opt_sqm_re2.out
 ----------------------
 Symbolic Z-matrix:
 Charge =  0 Multiplicity = 1

                         Standard orientation:
 ---------------------------------------------------------------------
 Center     Atomic      Atomic             Coordinates (Angstroms)
 Number     Number       Type             X           Y           Z
 ---------------------------------------------------------------------
      1          6           0        0.100750    0.100341   -0.110380
      2          6           0       -0.334128    1.502491    0.041740
      3          8           0       -1.345198    1.805982    0.686700
      4          6           0       -0.849841   -0.891988    0.025150
      5          6           0       -0.506871   -0.981299    2.855180
      6          1           0       -0.765241   -0.589448    3.851580
      7          1           0       -0.259873   -2.048149    2.945740
      8          1           0        0.385819   -0.447720    2.494280
      9          7           0       -1.566171   -0.794047    1.885560
     10          1           0       -2.391772   -1.367276    2.050870
     11          1           0       -1.829600    0.195023    1.780400
     12          1           0       -0.517373   -1.931709    0.033820
     13         35           0       -2.583071   -0.800386   -0.844350
     14          6           0        1.531160   -0.279981   -0.191490
     15          6           0        2.527181    0.413507    0.524890
     16          6           0        3.864350    0.030805    0.461630
     17          6           0        4.250859   -1.067965   -0.307300
     18          6           0        3.281208   -1.768404   -1.023270
     19          6           0        1.946008   -1.371372   -0.977170
     20          1           0        2.243192    1.263168    1.150460
     21          1           0        4.611221    0.588864    1.031660
     22          1           0        5.299148   -1.370857   -0.351960
     23          1           0        3.567916   -2.622604   -1.641520
     24          1           0        1.206497   -1.905181   -1.579460
     25          7           0        0.442653    2.454460   -0.542150
     26          6           0        0.183055    3.866880   -0.432310
     27          1           0        1.206173    2.143269   -1.128050
     28          1           0        1.088286    4.412659   -0.124540
     29          1           0       -0.175624    4.293881   -1.383090
     30          1           0       -0.597455    4.010741    0.324530
 ---------------------------------------------------------------------

 SCF Done:  E(RwB97XD) =  -3186.16695673     A.U. after   15 cycles

 The electronic state is 1-A.
 Alpha  occ. eigenvalues -- -483.04786 -62.63004 -56.43769 -56.43420 -56.43406
 Alpha  occ. eigenvalues --  -19.20961 -14.47863 -14.45733 -10.38804 -10.38363
 Alpha  occ. eigenvalues --  -10.33227 -10.32140 -10.31341 -10.30155 -10.30110
 Alpha  occ. eigenvalues --  -10.29790 -10.29783 -10.29715 -10.27649  -8.79955
 Alpha  occ. eigenvalues --   -6.62483  -6.61215  -6.61161  -2.72853  -2.72503
 Alpha  occ. eigenvalues --   -2.72460  -2.71450  -2.71449  -1.11373  -1.01252
 Alpha  occ. eigenvalues --   -1.00014  -0.95256  -0.91157  -0.86407  -0.83516
 Alpha  occ. eigenvalues --   -0.80887  -0.78680  -0.77155  -0.70538  -0.68886
 Alpha  occ. eigenvalues --   -0.67614  -0.65516  -0.62058  -0.61068  -0.57573
 Alpha  occ. eigenvalues --   -0.56098  -0.55345  -0.54619  -0.53139  -0.52657
 Alpha  occ. eigenvalues --   -0.52078  -0.51269  -0.50127  -0.49337  -0.47282
 Alpha  occ. eigenvalues --   -0.47064  -0.46397  -0.45494  -0.45388  -0.43310
 Alpha  occ. eigenvalues --   -0.42609  -0.42032  -0.36308  -0.35492  -0.34892
 Alpha  occ. eigenvalues --   -0.33313  -0.32762  -0.32415  -0.25610
 Alpha virt. eigenvalues --    0.03935   0.05959   0.07249   0.08662   0.13568
 Alpha virt. eigenvalues --    0.14816   0.15748   0.17415   0.17706   0.18013
 Alpha virt. eigenvalues --    0.18936   0.20124   0.20235   0.21064   0.21760

 Mulliken charges:
               1
     1  C   -0.118806
     2  C    0.178552
     3  O   -0.351951
     4  C   -0.030109
     5  C    0.032116
     6  H    0.059442
     7  H    0.055773
     8  H    0.059767
     9  N   -0.225162
    10  H    0.156372
    11  H    0.168663
    12  H    0.081142
    13  Br  -0.101422
    14  C    0.020276
    15  C   -0.063848
    16  C   -0.024233
    17  C   -0.034918
    18  C   -0.020706
    19  C   -0.066692
    20  H    0.015994
    21  H    0.022998
    22  H    0.023871
    23  H    0.024199
    24  H    0.014961
    25  N   -0.238136
    26  C    0.058098
    27  H    0.152240
    28  H    0.042434
    29  H    0.049009
    30  H    0.060076
 Sum of Mulliken charges =  -0.00000

 Dipole moment (field-independent basis, Debye):
    X=              1.6306    Y=             -1.2358    Z=              2.3346  Tot=              3.1043
 Quadrupole moment (field-independent basis, Debye-Ang):
   XX=           -101.0778   YY=            -93.8168   ZZ=            -94.4644
   XY=              7.1976   XZ=             -5.0592   YZ=             -5.1842

  Exact polarizability:     235.107       3.167     170.886      -8.238       9.861     146.749
 Approx polarizability:     213.482       3.839     166.657      -4.954      14.718     150.650

 ******    1 imaginary frequencies (negative Signs) ******

                      1                      2                      3
                      A                      A                      A
 Frequencies --   -351.6766                38.6777                59.6185
 Red. masses --      5.4051                 4.1716                 3.9319
 Frc consts  --      0.3939                 0.0037                 0.0082
 IR Inten    --    474.0778                 2.2632                 3.8498

                      4                      5                      6
                      A                      A                      A
 Frequencies --     64.3875                73.0741                85.8683
 Red. masses --      3.4106                 1.6215                 1.8082
 Frc consts  --      0.0083                 0.0051                 0.0079
 IR Inten    --      1.0603                 0.3205                 0.1494

                      7                      8                      9
                      A                      A                      A
 Frequencies --     94.1304               100.1976               142.1130
 Red. masses --      3.6888                 7.9495                 2.5489
 Frc consts  --      0.0193                 0.0470                 0.0303
 IR Inten    --      0.8481                 6.4547                 8.2012

                     10                     11                     12
                      A                      A                      A
 Frequencies --    160.9289               163.1514               202.5205
 Red. masses --      2.3614                 3.3013                 1.7166
 Frc consts  --      0.0360                 0.0518                 0.0415
 IR Inten    --      2.9137                11.1116                 7.3381

                     13                     14                     15
                      A                      A                      A
 Frequencies --    226.1634               261.1411               269.5045
 Red. masses --      4.2713                 4.8974                 4.2101
 Frc consts  --      0.1287                 0.1968                 0.1802
 IR Inten    --      2.0625                 8.5459                25.0617

                     16                     17                     18
                      A                      A                      A
 Frequencies --    314.6457               334.6254               419.1543
 Red. masses --      3.5893                 4.1448                 7.0590
 Frc consts  --      0.2094                 0.2734                 0.7307
 IR Inten    --     51.5238                 2.9701                14.7768

                     19                     20                     21
                      A                      A                      A
 Frequencies --    425.1580               475.3593               519.4175
 Red. masses --      2.8939                 3.7544                 3.4029
 Frc consts  --      0.3082                 0.4998                 0.5409
 IR Inten    --      3.6079                33.7104                40.1251

                     22                     23                     24
                      A                      A                      A
 Frequencies --    568.0394               579.5346               628.7897
 Red. masses --      2.3541                 1.4937                 3.8608
 Frc consts  --      0.4475                 0.2956                 0.8994
 IR Inten    --     43.9131                45.3975                27.9923

                     25                     26                     27
                      A                      A                      A
 Frequencies --    641.2123               708.6314               724.0031
 Red. masses --      4.6670                 1.9656                 2.7012
 Frc consts  --      1.1306                 0.5815                 0.8342
 IR Inten    --     12.5730                32.0142                41.8010

                     28                     29                     30
                      A                      A                      A
 Frequencies --    732.1488               792.1501               816.1402
 Red. masses --      1.7727                 3.5387                 3.4833
 Frc consts  --      0.5599                 1.3083                 1.3670
 IR Inten    --    141.5733                 9.7394                53.5902

                     31                     32                     33
                      A                      A                      A
 Frequencies --    842.6629               870.3033               944.1432
 Red. masses --      3.7212                 1.2505                 1.4770
 Frc consts  --      1.5568                 0.5581                 0.7757
 IR Inten    --     17.1193                 1.4568                 2.0550

                     34                     35                     36
                      A                      A                      A
 Frequencies --    960.0367               994.3553              1011.6771
 Red. masses --      1.0933                 2.7051                 1.5995
 Frc consts  --      0.5937                 1.5759                 0.9645
 IR Inten    --     81.2368                 6.0826                 0.1585

                     37                     38                     39
                      A                      A                      A
 Frequencies --   1017.1328              1033.1037              1038.7946
 Red. masses --      3.4069                 1.3256                 1.3122
 Frc consts  --      2.0767                 0.8336                 0.8343
 IR Inten    --      0.5397                 0.5506                23.7783

                     40                     41                     42
                      A                      A                      A
 Frequencies --   1065.6468              1077.8037              1110.7053
 Red. masses --      1.9161                 1.1294                 1.4940
 Frc consts  --      1.2821                 0.7730                 1.0859
 IR Inten    --      6.8947                95.8667                13.4970

                     43                     44                     45
                      A                      A                      A
 Frequencies --   1120.1398              1124.9657              1149.6077
 Red. masses --      4.1127                 2.9540                 1.2989
 Frc consts  --      3.0403                 2.2026                 1.0114
 IR Inten    --     42.7972                 4.2205                 5.5856

                     46                     47                     48
                      A                      A                      A
 Frequencies --   1172.7130              1174.9685              1181.9840
 Red. masses --      1.0903                 1.8324                 1.4015
 Frc consts  --      0.8834                 1.4904                 1.1536
 IR Inten    --      1.1529                33.8671                27.5503

                     49                     50                     51
                      A                      A                      A
 Frequencies --   1200.5813              1240.0716              1286.0480
 Red. masses --      1.1095                 1.3732                 2.2800
 Frc consts  --      0.9422                 1.2442                 2.2218
 IR Inten    --      2.2663                14.1721                60.2571

                     52                     53                     54
                      A                      A                      A
 Frequencies --   1314.8777              1333.6831              1361.5599
 Red. masses --      1.9009                 1.3022                 2.2642
 Frc consts  --      1.9364                 1.3647                 2.4730
 IR Inten    --     73.4803                 6.8081                26.5482

                     55                     56                     57
                      A                      A                      A
 Frequencies --   1364.4150              1430.5759              1439.4355
 Red. masses --      3.4041                 1.2033                 1.2852
 Frc consts  --      3.7337                 1.4510                 1.5689
 IR Inten    --     91.9005                31.7369                89.9405

                     58                     59                     60
                      A                      A                      A
 Frequencies --   1472.0680              1474.0324              1476.6003
 Red. masses --      1.0600                 1.7304                 1.3408
 Frc consts  --      1.3534                 2.2152                 1.7224
 IR Inten    --      5.6301               172.7849                17.5418

                     61                     62                     63
                      A                      A                      A
 Frequencies --   1485.7187              1489.7105              1509.8806
 Red. masses --      1.0869                 1.0470                 3.6985
 Frc consts  --      1.4135                 1.3690                 4.9677
 IR Inten    --     31.5924                16.4094               161.2464

                     64                     65                     66
                      A                      A                      A
 Frequencies --   1540.8547              1597.0567              1624.2220
 Red. masses --      2.7540                 2.1642                 1.1419
 Frc consts  --      3.8524                 3.2524                 1.7749
 IR Inten    --    154.5735               440.7110               112.4846

                     67                     68                     69
                      A                      A                      A
 Frequencies --   1656.2175              1688.6649              1738.6808
 Red. masses --      6.0207                 6.2128                 7.9056
 Frc consts  --      9.7303                10.4382                14.0807
 IR Inten    --     10.1182                78.5771               362.3458

                     70                     71                     72
                      A                      A                      A
 Frequencies --   3041.9171              3047.6296              3122.9749
 Red. masses --      1.0374                 1.0351                 1.1062
 Frc consts  --      5.6555                 5.6643                 6.3568
 IR Inten    --     95.7794                49.3292                27.2325

                     73                     74                     75
                      A                      A                      A
 Frequencies --   3141.0540              3167.2468              3189.2737
 Red. masses --      1.1051                 1.1063                 1.1022
 Frc consts  --      6.4241                 6.5386                 6.6051
 IR Inten    --     10.3722                11.1892                 0.6406

                     76                     77                     78
                      A                      A                      A
 Frequencies --   3194.7928              3199.2131              3209.3880
 Red. masses --      1.0860                 1.0892                 1.0929
 Frc consts  --      6.5306                 6.5680                 6.6328
 IR Inten    --      8.6664                 0.2901                 6.5647

                     79                     80                     81
                      A                      A                      A
 Frequencies --   3213.7698              3225.2134              3229.3321
 Red. masses --      1.0970                 1.1009                 1.0932
 Frc consts  --      6.6757                 6.7468                 6.7171
 IR Inten    --     28.6222                16.6718                 2.4471

                     82                     83                     84
                      A                      A                      A
 Frequencies --   3417.2540              3607.8406              3678.5093
 Red. masses --      1.0638                 1.0879                 1.0785
 Frc consts  --      7.3195                 8.3435                 8.5983
 IR Inten    --    117.7014                87.9607                56.0794

 - Thermochemistry -
 -------------------
 Temperature   298.150 Kelvin.  Pressure   1.00000 Atm.
 Atom     1 has atomic number  6 and mass  12.00000

 Molecular mass:   270.03677 amu.
 Principal axes and moments of inertia in atomic units:
                           1         2         3
     Eigenvalues --  3139.602625913.587526944.88943
           X            0.99915  -0.02938  -0.02880
           Y            0.02793   0.99839  -0.04938
           Z            0.03020   0.04853   0.99837
 This molecule is an asymmetric top.
 Rotational symmetry number  1.
 Warning -- assumption of classical behavior for rotation
           may cause significant error
 Rotational temperatures (Kelvin)      0.02759     0.01465     0.01247
 Rotational constants (GHZ):           0.57483     0.30519     0.25987
    1 imaginary frequencies ignored.
 Zero-point vibrational energy     651495.8 (Joules/Mol)
                                  155.71124 (Kcal/Mol)
 Warning -- explicit consideration of  22 degrees of freedom as
           vibrations may cause significant error
 Vibrational temperatures:     55.65    85.78    92.64   105.14   123.55
          (Kelvin)            135.43   144.16   204.47   231.54   234.74
                              291.38   325.40   375.72   387.76   452.70
                              481.45   603.07   611.71   683.94   747.33
                              817.28   833.82   904.69   922.56  1019.56
                             1041.68  1053.40  1139.73  1174.24  1212.40
                             1252.17  1358.41  1381.28  1430.66  1455.58
                             1463.43  1486.41  1494.59  1533.23  1550.72
                             1598.06  1611.63  1618.57  1654.03  1687.27
                             1690.52  1700.61  1727.37  1784.19  1850.34
                             1891.82  1918.87  1958.98  1963.09  2058.28
                             2071.03  2117.98  2120.80  2124.50  2137.62
                             2143.36  2172.38  2216.95  2297.81  2336.89
                             2382.93  2429.61  2501.57  4376.64  4384.86
                             4493.26  4519.28  4556.96  4588.65  4596.59
                             4602.95  4617.59  4623.90  4640.36  4646.29
                             4916.67  5190.88  5292.55

 Zero-point correction=                           0.248142 (Hartree/Particle)
 Thermal correction to Energy=                    0.264035
 Thermal correction to Enthalpy=                  0.264980
 Thermal correction to Gibbs Free Energy=         0.202971
 Sum of electronic and zero-point Energies=          -3185.918815
 Sum of electronic and thermal Energies=             -3185.902921
 Sum of electronic and thermal Enthalpies=           -3185.901977
 Sum of electronic and thermal Free Energies=        -3185.963986

                     E (Thermal)             CV                S
                      KCal/Mol        Cal/Mol-Kelvin    Cal/Mol-Kelvin
 Total                  165.685             56.948            130.509
 Electronic               0.000              0.000              0.000
 Translational            0.889              2.981             42.679
 Rotational               0.889              2.981             33.222
 Vibrational            163.907             50.987             54.608
 Vibration     1          0.594              1.981              5.326
 Vibration     2          0.597              1.974              4.470
 Vibration     3          0.597              1.971              4.318
 Vibration     4          0.599              1.967              4.069
 Vibration     5          0.601              1.959              3.752
 Vibration     6          0.603              1.953              3.572
 Vibration     7          0.604              1.949              3.450
 Vibration     8          0.616              1.911              2.775
 Vibration     9          0.622              1.890              2.539
 Vibration    10          0.623              1.888              2.513
 Vibration    11          0.639              1.836              2.110
 Vibration    12          0.650              1.801              1.909
 Vibration    13          0.669              1.744              1.654
 Vibration    14          0.674              1.729              1.599
 Vibration    15          0.702              1.646              1.338
 Vibration    16          0.716              1.606              1.238
 Vibration    17          0.782              1.429              0.895
 Vibration    18          0.787              1.416              0.875
 Vibration    19          0.832              1.305              0.723
 Vibration    20          0.874              1.207              0.611
 Vibration    21          0.924              1.100              0.508
 Vibration    22          0.936              1.076              0.486

 Normal termination of Gaussian 16 at Sat Dec 30 21:03:44 2023.
