 Gaussian 16, Revision C.01,
 Gaussian 16:  ES64L-G16RevC.01  3-Jul-2019

 ----------------------------------------------------------------------
 # wb97xd chkbasis guess=read geom=allchk scrf=(iefpcm,solvent=toluene)
  opt=(readfc,ts,noeigen,maxcycles=50,maxstep=10)
 ----------------------------------------------------------------------

 Structure from the checkpoint file:  "TS-92_opt_sqm.chk"
 ---------
 TS-92.out
 ---------
 Charge =  0 Multiplicity = 1

 SCF Done:  E(RwB97XD) =  -671.971376769     A.U. after    1 cycles
 SCF Done:  E(RwB97XD) =  -671.971882101     A.U. after   13 cycles
 SCF Done:  E(RwB97XD) =  -671.971566132     A.U. after   12 cycles
 SCF Done:  E(RwB97XD) =  -671.970448716     A.U. after   12 cycles
 SCF Done:  E(RwB97XD) =  -671.970164483     A.U. after   13 cycles
 SCF Done:  E(RwB97XD) =  -671.970489828     A.U. after   12 cycles
 SCF Done:  E(RwB97XD) =  -671.970420460     A.U. after   12 cycles
 SCF Done:  E(RwB97XD) =  -671.970617277     A.U. after   12 cycles
 SCF Done:  E(RwB97XD) =  -671.970633990     A.U. after   11 cycles
 SCF Done:  E(RwB97XD) =  -671.970646684     A.U. after   11 cycles
 SCF Done:  E(RwB97XD) =  -671.970646069     A.U. after   10 cycles
 SCF Done:  E(RwB97XD) =  -671.970648055     A.U. after   10 cycles
 SCF Done:  E(RwB97XD) =  -671.970523714     A.U. after   12 cycles
 SCF Done:  E(RwB97XD) =  -671.970647325     A.U. after   12 cycles
 SCF Done:  E(RwB97XD) =  -671.970647652     A.U. after   10 cycles
 SCF Done:  E(RwB97XD) =  -671.970647971     A.U. after    9 cycles
 Optimization completed.
    -- Stationary point found.

                         Standard orientation:
 ---------------------------------------------------------------------
 Center     Atomic      Atomic             Coordinates (Angstroms)
 Number     Number       Type             X           Y           Z
 ---------------------------------------------------------------------
      1          6           0       -0.909124   -0.705532    0.186748
      2          6           0       -2.289312   -0.460518    0.151438
      3          8           0       -2.856643    0.640013    0.028443
      4          6           0        0.049880    0.412247    0.270976
      5          6           0       -0.801969    2.637108   -1.057168
      6          1           0       -0.190777    3.335520   -0.475995
      7          1           0       -0.914493    3.017931   -2.080856
      8          1           0       -1.783865    2.488586   -0.595553
      9          7           0       -0.141303    1.319344   -1.109373
     10          1           0       -0.703860    0.675155   -1.674371
     11          1           0        0.772976    1.396905   -1.562136
     12          6           0        1.494548   -0.073788    0.161452
     13          6           0        1.839111   -0.978720   -0.855277
     14          6           0        3.150382   -1.419288   -1.012617
     15          6           0        4.149167   -0.967953   -0.149468
     16          6           0        3.821366   -0.072800    0.865511
     17          6           0        2.507770    0.374323    1.016035
     18          1           0        1.058601   -1.353633   -1.521877
     19          1           0        3.391747   -2.126275   -1.809444
     20          1           0        5.177742   -1.315800   -0.266672
     21          1           0        4.592863    0.284026    1.551417
     22          1           0        2.281558    1.073161    1.821589
     23          6           0       -0.184913    1.368847    1.438730
     24          1           0       -1.243862    1.649614    1.471346
     25          1           0        0.045528    0.824450    2.363935
     26          1           0        0.436638    2.277315    1.410113
     27          1           0       -0.543385   -1.729130    0.238057
     28          8           0       -3.050981   -1.599480    0.222357
     29          6           0       -4.439808   -1.426239    0.098712
     30          1           0       -4.887557   -2.426199    0.173273
     31          1           0       -4.847396   -0.782767    0.894521
     32          1           0       -4.714932   -0.974649   -0.868571
 ---------------------------------------------------------------------

 The electronic state is 1-A.
 Alpha  occ. eigenvalues --  -19.24619 -19.17819 -14.54342 -10.36532 -10.36361
 Alpha  occ. eigenvalues --  -10.34730 -10.32111 -10.31934 -10.31140 -10.31126
 Alpha  occ. eigenvalues --  -10.31095 -10.31049 -10.31005 -10.28937 -10.22715
 Alpha  occ. eigenvalues --   -1.13992  -1.07636  -1.03755  -0.96408  -0.89827
 Alpha  occ. eigenvalues --   -0.84787  -0.83123  -0.80999  -0.79895  -0.75075
 Alpha  occ. eigenvalues --   -0.71462  -0.69854  -0.66556  -0.65822  -0.62400
 Alpha  occ. eigenvalues --   -0.60917  -0.58527  -0.57618  -0.55609  -0.54046
 Alpha  occ. eigenvalues --   -0.53586  -0.52956  -0.52139  -0.51676  -0.50916
 Alpha  occ. eigenvalues --   -0.49317  -0.48658  -0.46590  -0.46312  -0.46077
 Alpha  occ. eigenvalues --   -0.45526  -0.44040  -0.43310  -0.42337  -0.41806
 Alpha  occ. eigenvalues --   -0.39538  -0.34172  -0.34019  -0.33903  -0.30969
 Alpha  occ. eigenvalues --   -0.23593
 Alpha virt. eigenvalues --    0.04213   0.05020   0.11320   0.13420   0.14063
 Alpha virt. eigenvalues --    0.15163   0.16706   0.18041   0.18346   0.18437
 Alpha virt. eigenvalues --    0.19102   0.20534   0.21306   0.21871   0.22312

 Mulliken charges:
               1
     1  C   -0.307260
     2  C    0.269675
     3  O   -0.419787
     4  C   -0.099780
     5  C    0.026828
     6  H    0.067091
     7  H    0.072562
     8  H    0.103006
     9  N   -0.112735
    10  H    0.186903
    11  H    0.182617
    12  C   -0.002543
    13  C   -0.060090
    14  C   -0.018961
    15  C   -0.015139
    16  C   -0.022471
    17  C   -0.038047
    18  H    0.020914
    19  H    0.031514
    20  H    0.032359
    21  H    0.029940
    22  H    0.018420
    23  C    0.063202
    24  H    0.060939
    25  H    0.056340
    26  H    0.016907
    27  H    0.000929
    28  O   -0.373268
    29  C    0.151907
    30  H    0.032985
    31  H    0.026210
    32  H    0.018835
 Sum of Mulliken charges =  -0.00000

 Dipole moment (field-independent basis, Debye):
    X=              5.2352    Y=              4.0265    Z=             -3.3731  Tot=              7.4161
 Quadrupole moment (field-independent basis, Debye-Ang):
   XX=            -92.5031   YY=            -85.3929   ZZ=            -82.7114
   XY=              0.2260   XZ=              2.1478   YZ=             -1.0254

 Normal termination of Gaussian 16 at Tue Dec 19 14:17:01 2023.
