 Gaussian 16, Revision C.01,
 Gaussian 16:  ES64L-G16RevC.01  3-Jul-2019

 -----------------------------------------------------------
 # wb97xd def2svp scrf=(iefpcm,solvent=toluene) freq=noraman
 -----------------------------------------------------------

 ------------------
 TS-325_opt_dft.out
 ------------------
 Symbolic Z-matrix:
 Charge =  0 Multiplicity = 1

                         Standard orientation:
 ---------------------------------------------------------------------
 Center     Atomic      Atomic             Coordinates (Angstroms)
 Number     Number       Type             X           Y           Z
 ---------------------------------------------------------------------
      1          6           0        0.100771    0.100341   -0.110191
      2          6           0       -0.334106    1.502532    0.041469
      3          8           0       -1.345405    1.806184    0.685999
      4          6           0       -0.849871   -0.891927    0.025549
      5          6           0       -0.507371   -0.979918    2.855609
      6          1           0       -0.765971   -0.587317    3.851669
      7          1           0       -0.260424   -2.046738    2.947019
      8          1           0        0.385380   -0.446660    2.494499
      9          7           0       -1.566481   -0.793405    1.885639
     10          1           0       -2.391912   -1.366854    2.050979
     11          1           0       -1.830249    0.195515    1.780079
     12          1           0       -0.517384   -1.931648    0.034489
     13         35           0       -2.582931   -0.800653   -0.844371
     14          6           0        1.531160   -0.280102   -0.191271
     15          6           0        2.527272    0.413446    0.524899
     16          6           0        3.864431    0.030703    0.461549
     17          6           0        4.250808   -1.068278   -0.307131
     18          6           0        3.281047   -1.768836   -1.022871
     19          6           0        1.945878   -1.371693   -0.976741
     20          1           0        2.243383    1.263176    1.150439
     21          1           0        4.611392    0.588891    1.031329
     22          1           0        5.299058   -1.371280   -0.351791
     23          1           0        3.567655   -2.623197   -1.640931
     24          1           0        1.206276   -1.905581   -1.578841
     25          7           0        0.442956    2.454340   -0.542341
     26          6           0        0.183389    3.866811   -0.433051
     27          1           0        1.206575    2.142949   -1.127991
     28          1           0       -0.598701    4.010843    0.321979
     29          1           0        1.088140    4.412439   -0.123351
     30          1           0       -0.173150    4.293832   -1.384641
 ---------------------------------------------------------------------

 SCF Done:  E(RwB97XD) =  -3186.16695679     A.U. after   15 cycles

 The electronic state is 1-A.
 Alpha  occ. eigenvalues -- -483.04785 -62.63004 -56.43768 -56.43420 -56.43406
 Alpha  occ. eigenvalues --  -19.20960 -14.47867 -14.45732 -10.38803 -10.38364
 Alpha  occ. eigenvalues --  -10.33229 -10.32139 -10.31340 -10.30154 -10.30110
 Alpha  occ. eigenvalues --  -10.29790 -10.29783 -10.29715 -10.27648  -8.79954
 Alpha  occ. eigenvalues --   -6.62483  -6.61215  -6.61161  -2.72853  -2.72503
 Alpha  occ. eigenvalues --   -2.72460  -2.71449  -2.71449  -1.11372  -1.01256
 Alpha  occ. eigenvalues --   -1.00013  -0.95255  -0.91156  -0.86406  -0.83516
 Alpha  occ. eigenvalues --   -0.80887  -0.78679  -0.77157  -0.70537  -0.68885
 Alpha  occ. eigenvalues --   -0.67614  -0.65516  -0.62060  -0.61068  -0.57572
 Alpha  occ. eigenvalues --   -0.56101  -0.55344  -0.54619  -0.53138  -0.52658
 Alpha  occ. eigenvalues --   -0.52079  -0.51269  -0.50127  -0.49336  -0.47283
 Alpha  occ. eigenvalues --   -0.47065  -0.46397  -0.45494  -0.45388  -0.43311
 Alpha  occ. eigenvalues --   -0.42609  -0.42032  -0.36308  -0.35493  -0.34891
 Alpha  occ. eigenvalues --   -0.33312  -0.32761  -0.32415  -0.25609
 Alpha virt. eigenvalues --    0.03936   0.05959   0.07250   0.08661   0.13568
 Alpha virt. eigenvalues --    0.14816   0.15748   0.17416   0.17706   0.18014
 Alpha virt. eigenvalues --    0.18936   0.20124   0.20235   0.21062   0.21762

 Mulliken charges:
               1
     1  C   -0.118833
     2  C    0.178567
     3  O   -0.351969
     4  C   -0.030133
     5  C    0.032111
     6  H    0.059465
     7  H    0.055790
     8  H    0.059773
     9  N   -0.225090
    10  H    0.156388
    11  H    0.168680
    12  H    0.081151
    13  Br  -0.101444
    14  C    0.020284
    15  C   -0.063887
    16  C   -0.024228
    17  C   -0.034921
    18  C   -0.020705
    19  C   -0.066685
    20  H    0.015996
    21  H    0.022995
    22  H    0.023865
    23  H    0.024195
    24  H    0.014956
    25  N   -0.238159
    26  C    0.058098
    27  H    0.152235
    28  H    0.060067
    29  H    0.042439
    30  H    0.048996
 Sum of Mulliken charges =  -0.00000

 Dipole moment (field-independent basis, Debye):
    X=              1.6292    Y=             -1.2362    Z=              2.3369  Tot=              3.1054
 Quadrupole moment (field-independent basis, Debye-Ang):
   XX=           -101.0769   YY=            -93.8227   ZZ=            -94.4589
   XY=              7.1976   XZ=             -5.0647   YZ=             -5.1840

  Exact polarizability:     235.107       3.167     170.895      -8.235       9.867     146.743
 Approx polarizability:     213.484       3.839     166.667      -4.950      14.721     150.639

 ******    1 imaginary frequencies (negative Signs) ******

                      1                      2                      3
                      A                      A                      A
 Frequencies --   -351.7276                38.7038                59.6229
 Red. masses --      5.4051                 4.1664                 3.8952
 Frc consts  --      0.3940                 0.0037                 0.0082
 IR Inten    --    474.0788                 2.2612                 3.8353

                      4                      5                      6
                      A                      A                      A
 Frequencies --     64.3905                73.0845                85.8076
 Red. masses --      3.3961                 1.6126                 1.8365
 Frc consts  --      0.0083                 0.0051                 0.0080
 IR Inten    --      1.0611                 0.3176                 0.1547

                      7                      8                      9
                      A                      A                      A
 Frequencies --     94.1437               100.3613               142.1296
 Red. masses --      3.6953                 7.8769                 2.5481
 Frc consts  --      0.0193                 0.0467                 0.0303
 IR Inten    --      0.8341                 6.4591                 8.2451

                     10                     11                     12
                      A                      A                      A
 Frequencies --    160.9405               163.1855               202.5863
 Red. masses --      2.3580                 3.3126                 1.7148
 Frc consts  --      0.0360                 0.0520                 0.0415
 IR Inten    --      2.9288                11.1105                 7.3019

                     13                     14                     15
                      A                      A                      A
 Frequencies --    226.2264               261.1416               269.5672
 Red. masses --      4.2709                 4.8977                 4.2085
 Frc consts  --      0.1288                 0.1968                 0.1802
 IR Inten    --      2.0640                 8.5549                25.1174

                     16                     17                     18
                      A                      A                      A
 Frequencies --    314.6125               334.5817               419.1122
 Red. masses --      3.5881                 4.1448                 7.0610
 Frc consts  --      0.2093                 0.2734                 0.7308
 IR Inten    --     51.5099                 2.9719                14.7901

                     19                     20                     21
                      A                      A                      A
 Frequencies --    425.1681               475.3827               519.4591
 Red. masses --      2.8941                 3.7600                 3.4120
 Frc consts  --      0.3082                 0.5006                 0.5425
 IR Inten    --      3.6078                33.7082                39.9302

                     22                     23                     24
                      A                      A                      A
 Frequencies --    568.1086               579.8297               628.7847
 Red. masses --      2.3895                 1.4770                 3.8565
 Frc consts  --      0.4544                 0.2926                 0.8984
 IR Inten    --     42.7242                46.7277                28.1240

                     25                     26                     27
                      A                      A                      A
 Frequencies --    641.2053               708.6172               723.9980
 Red. masses --      4.6718                 1.9658                 2.7080
 Frc consts  --      1.1317                 0.5816                 0.8363
 IR Inten    --     12.5359                32.0823                41.9579

                     28                     29                     30
                      A                      A                      A
 Frequencies --    732.1405               792.1484               816.1344
 Red. masses --      1.7699                 3.5379                 3.4848
 Frc consts  --      0.5590                 1.3080                 1.3676
 IR Inten    --    141.3689                 9.7542                53.5696

                     31                     32                     33
                      A                      A                      A
 Frequencies --    842.6231               870.3256               944.1583
 Red. masses --      3.7205                 1.2505                 1.4770
 Frc consts  --      1.5564                 0.5581                 0.7758
 IR Inten    --     17.1585                 1.4581                 2.0520

                     34                     35                     36
                      A                      A                      A
 Frequencies --    960.0609               994.3590              1011.6799
 Red. masses --      1.0933                 2.7072                 1.6004
 Frc consts  --      0.5937                 1.5771                 0.9651
 IR Inten    --     81.2354                 6.0987                 0.1599

                     37                     38                     39
                      A                      A                      A
 Frequencies --   1017.1410              1033.0868              1038.8482
 Red. masses --      3.4034                 1.3256                 1.3118
 Frc consts  --      2.0745                 0.8336                 0.8341
 IR Inten    --      0.5399                 0.5406                23.7834

                     40                     41                     42
                      A                      A                      A
 Frequencies --   1065.6550              1077.8444              1110.7138
 Red. masses --      1.9160                 1.1294                 1.4942
 Frc consts  --      1.2820                 0.7730                 1.0861
 IR Inten    --      6.8759                95.9142                13.5120

                     43                     44                     45
                      A                      A                      A
 Frequencies --   1120.1459              1124.9768              1149.6510
 Red. masses --      4.1139                 2.9543                 1.2989
 Frc consts  --      3.0412                 2.2029                 1.0115
 IR Inten    --     42.7834                 4.2148                 5.5262

                     46                     47                     48
                      A                      A                      A
 Frequencies --   1172.6997              1174.8663              1182.0070
 Red. masses --      1.0906                 1.8314                 1.4015
 Frc consts  --      0.8836                 1.4894                 1.1537
 IR Inten    --      1.1890                33.8721                27.5716

                     49                     50                     51
                      A                      A                      A
 Frequencies --   1200.5982              1240.0853              1286.0478
 Red. masses --      1.1095                 1.3732                 2.2801
 Frc consts  --      0.9422                 1.2442                 2.2218
 IR Inten    --      2.2711                14.1960                60.3773

                     52                     53                     54
                      A                      A                      A
 Frequencies --   1314.8919              1333.7003              1361.5653
 Red. masses --      1.9014                 1.3022                 2.2626
 Frc consts  --      1.9368                 1.3647                 2.4714
 IR Inten    --     73.4980                 6.8064                26.6731

                     55                     56                     57
                      A                      A                      A
 Frequencies --   1364.4075              1430.4760              1439.4293
 Red. masses --      3.4067                 1.2035                 1.2853
 Frc consts  --      3.7365                 1.4509                 1.5691
 IR Inten    --     91.8961                31.7509                90.0881

                     58                     59                     60
                      A                      A                      A
 Frequencies --   1472.0788              1474.0276              1476.5977
 Red. masses --      1.0607                 1.7407                 1.3328
 Frc consts  --      1.3543                 2.2283                 1.7122
 IR Inten    --      5.7210               173.2954                16.9102

                     61                     62                     63
                      A                      A                      A
 Frequencies --   1485.7064              1489.7085              1509.8470
 Red. masses --      1.0872                 1.0471                 3.6980
 Frc consts  --      1.4140                 1.3691                 4.9669
 IR Inten    --     31.7588                16.4401               161.2271

                     64                     65                     66
                      A                      A                      A
 Frequencies --   1540.8547              1597.0752              1624.1946
 Red. masses --      2.7532                 2.1637                 1.1419
 Frc consts  --      3.8514                 3.2517                 1.7748
 IR Inten    --    154.4037               440.5293               112.5292

                     67                     68                     69
                      A                      A                      A
 Frequencies --   1656.2136              1688.6552              1738.6728
 Red. masses --      6.0208                 6.2127                 7.9055
 Frc consts  --      9.7305                10.4378                14.0804
 IR Inten    --     10.1200                78.6128               362.4326

                     70                     71                     72
                      A                      A                      A
 Frequencies --   3041.7667              3047.6129              3122.5668
 Red. masses --      1.0374                 1.0351                 1.1063
 Frc consts  --      5.6553                 5.6643                 6.3554
 IR Inten    --     95.7677                49.4330                27.2605

                     73                     74                     75
                      A                      A                      A
 Frequencies --   3141.1117              3167.1891              3190.0815
 Red. masses --      1.1051                 1.1063                 1.1020
 Frc consts  --      6.4243                 6.5384                 6.6078
 IR Inten    --     10.4072                11.0747                 0.6092

                     76                     77                     78
                      A                      A                      A
 Frequencies --   3194.8159              3199.2242              3209.3960
 Red. masses --      1.0860                 1.0892                 1.0929
 Frc consts  --      6.5307                 6.5680                 6.6328
 IR Inten    --      8.6997                 0.2908                 6.4562

                     79                     80                     81
                      A                      A                      A
 Frequencies --   3213.7774              3225.2705              3229.2454
 Red. masses --      1.0970                 1.1009                 1.0932
 Frc consts  --      6.6757                 6.7470                 6.7167
 IR Inten    --     28.6673                16.7032                 2.4542

                     82                     83                     84
                      A                      A                      A
 Frequencies --   3417.4013              3607.9541              3678.6743
 Red. masses --      1.0638                 1.0879                 1.0785
 Frc consts  --      7.3202                 8.3440                 8.5990
 IR Inten    --    117.6826                87.9828                56.0661

 - Thermochemistry -
 -------------------
 Temperature   298.150 Kelvin.  Pressure   1.00000 Atm.
 Atom     1 has atomic number  6 and mass  12.00000

 Molecular mass:   270.03677 amu.
 Principal axes and moments of inertia in atomic units:
                           1         2         3
     Eigenvalues --  3139.698635913.537526944.83602
           X            0.99915  -0.02939  -0.02880
           Y            0.02794   0.99839  -0.04938
           Z            0.03021   0.04853   0.99836
 This molecule is an asymmetric top.
 Rotational symmetry number  1.
 Warning -- assumption of classical behavior for rotation
           may cause significant error
 Rotational temperatures (Kelvin)      0.02759     0.01465     0.01247
 Rotational constants (GHZ):           0.57481     0.30519     0.25987
    1 imaginary frequencies ignored.
 Zero-point vibrational energy     651503.9 (Joules/Mol)
                                  155.71316 (Kcal/Mol)
 Warning -- explicit consideration of  22 degrees of freedom as
           vibrations may cause significant error
 Vibrational temperatures:     55.69    85.78    92.64   105.15   123.46
          (Kelvin)            135.45   144.40   204.49   231.56   234.79
                              291.48   325.49   375.72   387.85   452.66
                              481.39   603.01   611.72   683.97   747.39
                              817.38   834.25   904.68   922.55  1019.54
                             1041.67  1053.39  1139.72  1174.24  1212.35
                             1252.20  1358.43  1381.31  1430.66  1455.58
                             1463.44  1486.38  1494.67  1533.24  1550.78
                             1598.07  1611.64  1618.59  1654.09  1687.25
                             1690.37  1700.64  1727.39  1784.21  1850.34
                             1891.84  1918.90  1958.99  1963.08  2058.14
                             2071.02  2117.99  2120.80  2124.49  2137.60
                             2143.36  2172.33  2216.95  2297.84  2336.85
                             2382.92  2429.60  2501.56  4376.42  4384.84
                             4492.68  4519.36  4556.88  4589.82  4596.63
                             4602.97  4617.61  4623.91  4640.44  4646.16
                             4916.88  5191.04  5292.79

 Zero-point correction=                           0.248145 (Hartree/Particle)
 Thermal correction to Energy=                    0.264038
 Thermal correction to Enthalpy=                  0.264982
 Thermal correction to Gibbs Free Energy=         0.202976
 Sum of electronic and zero-point Energies=          -3185.918812
 Sum of electronic and thermal Energies=             -3185.902919
 Sum of electronic and thermal Enthalpies=           -3185.901975
 Sum of electronic and thermal Free Energies=        -3185.963981

                     E (Thermal)             CV                S
                      KCal/Mol        Cal/Mol-Kelvin    Cal/Mol-Kelvin
 Total                  165.686             56.947            130.502
 Electronic               0.000              0.000              0.000
 Translational            0.889              2.981             42.679
 Rotational               0.889              2.981             33.222
 Vibrational            163.909             50.986             54.601
 Vibration     1          0.594              1.981              5.324
 Vibration     2          0.597              1.974              4.470
 Vibration     3          0.597              1.971              4.318
 Vibration     4          0.599              1.967              4.069
 Vibration     5          0.601              1.959              3.753
 Vibration     6          0.603              1.953              3.572
 Vibration     7          0.604              1.949              3.447
 Vibration     8          0.616              1.911              2.775
 Vibration     9          0.622              1.890              2.539
 Vibration    10          0.623              1.888              2.513
 Vibration    11          0.639              1.836              2.109
 Vibration    12          0.650              1.801              1.909
 Vibration    13          0.669              1.744              1.654
 Vibration    14          0.674              1.729              1.599
 Vibration    15          0.702              1.646              1.338
 Vibration    16          0.716              1.606              1.238
 Vibration    17          0.782              1.429              0.895
 Vibration    18          0.787              1.415              0.875
 Vibration    19          0.832              1.305              0.723
 Vibration    20          0.874              1.207              0.611
 Vibration    21          0.924              1.100              0.508
 Vibration    22          0.936              1.075              0.486

 Optimization completed.
    -- Stationary point found.
 Normal termination of Gaussian 16 at Sat Dec 30 21:02:43 2023.
