 Gaussian 16, Revision C.01,
 Gaussian 16:  ES64L-G16RevC.01  3-Jul-2019

 ----------------------------------------------------------------------
 # wb97xd def2svp scrf=(iefpcm,solvent=toluene) opt=(calcfc,ts,noeigen,
 maxcycles=50,maxstep=10)
 ----------------------------------------------------------------------

 ----------
 TS-325.out
 ----------
 Symbolic Z-matrix:
 Charge =  0 Multiplicity = 1

 SCF Done:  E(RwB97XD) =  -3186.13623593     A.U. after   16 cycles

  Exact polarizability:       0.000       0.000       0.000       0.000       0.000       0.000
 Approx polarizability:     203.363       2.105     147.927      -3.953       7.576     166.843

 SCF Done:  E(RwB97XD) =  -3186.14344892     A.U. after   13 cycles
 SCF Done:  E(RwB97XD) =  -3186.14941343     A.U. after   12 cycles
 SCF Done:  E(RwB97XD) =  -3186.15435857     A.U. after   12 cycles
 SCF Done:  E(RwB97XD) =  -3186.15821230     A.U. after   12 cycles
 SCF Done:  E(RwB97XD) =  -3186.16132390     A.U. after   12 cycles
 SCF Done:  E(RwB97XD) =  -3186.16400247     A.U. after   12 cycles
 SCF Done:  E(RwB97XD) =  -3186.16572824     A.U. after   13 cycles
 SCF Done:  E(RwB97XD) =  -3186.16614353     A.U. after   13 cycles
 SCF Done:  E(RwB97XD) =  -3186.16582708     A.U. after   13 cycles
 SCF Done:  E(RwB97XD) =  -3186.16678014     A.U. after   14 cycles
 SCF Done:  E(RwB97XD) =  -3186.16691327     A.U. after   12 cycles
 SCF Done:  E(RwB97XD) =  -3186.16689959     A.U. after   13 cycles
 SCF Done:  E(RwB97XD) =  -3186.16695484     A.U. after   12 cycles
 SCF Done:  E(RwB97XD) =  -3186.16695647     A.U. after    9 cycles
 SCF Done:  E(RwB97XD) =  -3186.16687676     A.U. after   12 cycles
 SCF Done:  E(RwB97XD) =  -3186.16695623     A.U. after   12 cycles
 SCF Done:  E(RwB97XD) =  -3186.16695677     A.U. after    9 cycles
 SCF Done:  E(RwB97XD) =  -3186.16695678     A.U. after    9 cycles
 SCF Done:  E(RwB97XD) =  -3186.16695679     A.U. after    7 cycles
 Optimization completed.
    -- Stationary point found.

                         Standard orientation:
 ---------------------------------------------------------------------
 Center     Atomic      Atomic             Coordinates (Angstroms)
 Number     Number       Type             X           Y           Z
 ---------------------------------------------------------------------
      1          6           0        0.100771    0.100343   -0.110194
      2          6           0       -0.334110    1.502526    0.041467
      3          8           0       -1.345411    1.806185    0.685996
      4          6           0       -0.849872   -0.891932    0.025548
      5          6           0       -0.507369   -0.979921    2.855610
      6          1           0       -0.765974   -0.587320    3.851666
      7          1           0       -0.260423   -2.046744    2.947018
      8          1           0        0.385380   -0.446665    2.494498
      9          7           0       -1.566481   -0.793405    1.885642
     10          1           0       -2.391914   -1.366861    2.050977
     11          1           0       -1.830255    0.195511    1.780076
     12          1           0       -0.517381   -1.931650    0.034487
     13         35           0       -2.582927   -0.800656   -0.844372
     14          6           0        1.531155   -0.280098   -0.191268
     15          6           0        2.527275    0.413447    0.524900
     16          6           0        3.864435    0.030706    0.461552
     17          6           0        4.250807   -1.068274   -0.307127
     18          6           0        3.281052   -1.768826   -1.022867
     19          6           0        1.945882   -1.371692   -0.976741
     20          1           0        2.243385    1.263178    1.150440
     21          1           0        4.611393    0.588904    1.031333
     22          1           0        5.299062   -1.371270   -0.351787
     23          1           0        3.567659   -2.623188   -1.640928
     24          1           0        1.206279   -1.905581   -1.578844
     25          7           0        0.442946    2.454338   -0.542337
     26          6           0        0.183377    3.866812   -0.433045
     27          1           0        1.206575    2.142953   -1.127994
     28          1           0       -0.598707    4.010841    0.321975
     29          1           0        1.088125    4.412441   -0.123351
     30          1           0       -0.173158    4.293834   -1.384638
 ---------------------------------------------------------------------

 The electronic state is 1-A.
 Alpha  occ. eigenvalues -- -483.04785 -62.63004 -56.43769 -56.43420 -56.43406
 Alpha  occ. eigenvalues --  -19.20960 -14.47867 -14.45732 -10.38803 -10.38364
 Alpha  occ. eigenvalues --  -10.33229 -10.32139 -10.31340 -10.30154 -10.30110
 Alpha  occ. eigenvalues --  -10.29790 -10.29783 -10.29715 -10.27648  -8.79954
 Alpha  occ. eigenvalues --   -6.62483  -6.61215  -6.61161  -2.72853  -2.72503
 Alpha  occ. eigenvalues --   -2.72460  -2.71449  -2.71449  -1.11371  -1.01256
 Alpha  occ. eigenvalues --   -1.00013  -0.95255  -0.91156  -0.86407  -0.83516
 Alpha  occ. eigenvalues --   -0.80887  -0.78679  -0.77157  -0.70537  -0.68885
 Alpha  occ. eigenvalues --   -0.67614  -0.65516  -0.62060  -0.61068  -0.57572
 Alpha  occ. eigenvalues --   -0.56101  -0.55344  -0.54619  -0.53138  -0.52658
 Alpha  occ. eigenvalues --   -0.52078  -0.51269  -0.50127  -0.49336  -0.47283
 Alpha  occ. eigenvalues --   -0.47065  -0.46397  -0.45494  -0.45388  -0.43311
 Alpha  occ. eigenvalues --   -0.42609  -0.42031  -0.36308  -0.35493  -0.34891
 Alpha  occ. eigenvalues --   -0.33312  -0.32761  -0.32415  -0.25609
 Alpha virt. eigenvalues --    0.03936   0.05959   0.07249   0.08661   0.13568
 Alpha virt. eigenvalues --    0.14815   0.15748   0.17416   0.17706   0.18014
 Alpha virt. eigenvalues --    0.18936   0.20124   0.20235   0.21062   0.21762

 Mulliken charges:
               1
     1  C   -0.118833
     2  C    0.178566
     3  O   -0.351974
     4  C   -0.030131
     5  C    0.032114
     6  H    0.059465
     7  H    0.055791
     8  H    0.059773
     9  N   -0.225093
    10  H    0.156390
    11  H    0.168680
    12  H    0.081151
    13  Br  -0.101440
    14  C    0.020280
    15  C   -0.063889
    16  C   -0.024228
    17  C   -0.034921
    18  C   -0.020703
    19  C   -0.066686
    20  H    0.015996
    21  H    0.022996
    22  H    0.023866
    23  H    0.024195
    24  H    0.014957
    25  N   -0.238164
    26  C    0.058105
    27  H    0.152239
    28  H    0.060064
    29  H    0.042438
    30  H    0.048996
 Sum of Mulliken charges =  -0.00000

 Dipole moment (field-independent basis, Debye):
    X=              1.6291    Y=             -1.2362    Z=              2.3369  Tot=              3.1054
 Quadrupole moment (field-independent basis, Debye-Ang):
   XX=           -101.0769   YY=            -93.8226   ZZ=            -94.4589
   XY=              7.1978   XZ=             -5.0646   YZ=             -5.1841

 Normal termination of Gaussian 16 at Mon Dec 18 21:09:54 2023.
