 Gaussian 16, Revision C.01,
 Gaussian 16:  ES64L-G16RevC.01  3-Jul-2019

 ----------------------------------------------------------------------
 # wb97xd def2svp geom=allchk scrf=(iefpcm,solvent=toluene) opt=(readfc
 ,ts,noeigen,maxcycles=50,maxstep=10)
 ----------------------------------------------------------------------

 Structure from the checkpoint file:  "TS-325_hf.chk"
 ----------
 TS-325.out
 ----------
 Charge =  0 Multiplicity = 1

 SCF Done:  E(RwB97XD) =  -3186.13623593     A.U. after   16 cycles
 SCF Done:  E(RwB97XD) =  -3186.14310190     A.U. after   12 cycles
 SCF Done:  E(RwB97XD) =  -3186.14894303     A.U. after   12 cycles
 SCF Done:  E(RwB97XD) =  -3186.15393324     A.U. after   12 cycles
 SCF Done:  E(RwB97XD) =  -3186.15807158     A.U. after   12 cycles
 SCF Done:  E(RwB97XD) =  -3186.16143404     A.U. after   12 cycles
 SCF Done:  E(RwB97XD) =  -3186.16413253     A.U. after   13 cycles
 SCF Done:  E(RwB97XD) =  -3186.16606143     A.U. after   13 cycles
 SCF Done:  E(RwB97XD) =  -3186.16581716     A.U. after   14 cycles
 SCF Done:  E(RwB97XD) =  -3186.16568904     A.U. after   13 cycles
 SCF Done:  E(RwB97XD) =  -3186.16686268     A.U. after   13 cycles
 SCF Done:  E(RwB97XD) =  -3186.16677326     A.U. after   12 cycles
 SCF Done:  E(RwB97XD) =  -3186.16694959     A.U. after   12 cycles
 SCF Done:  E(RwB97XD) =  -3186.16695246     A.U. after   11 cycles
 SCF Done:  E(RwB97XD) =  -3186.16695684     A.U. after   10 cycles
 SCF Done:  E(RwB97XD) =  -3186.16695669     A.U. after    9 cycles
 SCF Done:  E(RwB97XD) =  -3186.16696104     A.U. after   12 cycles
 SCF Done:  E(RwB97XD) =  -3186.16695616     A.U. after   12 cycles
 SCF Done:  E(RwB97XD) =  -3186.16695640     A.U. after   10 cycles
 SCF Done:  E(RwB97XD) =  -3186.16695677     A.U. after   10 cycles
 Optimization completed.
    -- Stationary point found.

                         Standard orientation:
 ---------------------------------------------------------------------
 Center     Atomic      Atomic             Coordinates (Angstroms)
 Number     Number       Type             X           Y           Z
 ---------------------------------------------------------------------
      1          6           0        0.100748    0.100343   -0.110283
      2          6           0       -0.334033    1.502546    0.041550
      3          8           0       -1.345283    1.806271    0.686127
      4          6           0       -0.849880   -0.891926    0.025355
      5          6           0       -0.507246   -0.980430    2.855494
      6          1           0       -0.765761   -0.588077    3.851673
      7          1           0       -0.260291   -2.047279    2.946622
      8          1           0        0.385489   -0.447097    2.494450
      9          7           0       -1.566391   -0.793658    1.885636
     10          1           0       -2.391902   -1.367033    2.050840
     11          1           0       -1.829968    0.195336    1.780195
     12          1           0       -0.517439   -1.931651    0.034229
     13         35           0       -2.583039   -0.800497   -0.844360
     14          6           0        1.531134   -0.280100   -0.191368
     15          6           0        2.527240    0.413455    0.524807
     16          6           0        3.864398    0.030711    0.461492
     17          6           0        4.250783   -1.068273   -0.307178
     18          6           0        3.281042   -1.768822   -1.022939
     19          6           0        1.945868   -1.371689   -0.976837
     20          1           0        2.243339    1.263201    1.150327
     21          1           0        4.611345    0.588913    1.031283
     22          1           0        5.299038   -1.371269   -0.351818
     23          1           0        3.567660   -2.623183   -1.640996
     24          1           0        1.206281   -1.905578   -1.578959
     25          7           0        0.443085    2.454368   -0.542134
     26          6           0        0.183439    3.866821   -0.432733
     27          1           0        1.206593    2.143031   -1.127976
     28          1           0       -0.597963    4.010860    0.322997
     29          1           0        1.088419    4.412548   -0.123913
     30          1           0       -0.174019    4.293730   -1.384033
 ---------------------------------------------------------------------

 The electronic state is 1-A.
 Alpha  occ. eigenvalues -- -483.04786 -62.63004 -56.43769 -56.43420 -56.43406
 Alpha  occ. eigenvalues --  -19.20960 -14.47865 -14.45732 -10.38803 -10.38363
 Alpha  occ. eigenvalues --  -10.33228 -10.32139 -10.31341 -10.30154 -10.30110
 Alpha  occ. eigenvalues --  -10.29790 -10.29783 -10.29715 -10.27649  -8.79955
 Alpha  occ. eigenvalues --   -6.62483  -6.61216  -6.61161  -2.72853  -2.72503
 Alpha  occ. eigenvalues --   -2.72460  -2.71450  -2.71449  -1.11372  -1.01254
 Alpha  occ. eigenvalues --   -1.00013  -0.95256  -0.91157  -0.86407  -0.83516
 Alpha  occ. eigenvalues --   -0.80887  -0.78680  -0.77156  -0.70538  -0.68886
 Alpha  occ. eigenvalues --   -0.67614  -0.65516  -0.62060  -0.61068  -0.57573
 Alpha  occ. eigenvalues --   -0.56099  -0.55344  -0.54619  -0.53139  -0.52658
 Alpha  occ. eigenvalues --   -0.52079  -0.51269  -0.50127  -0.49336  -0.47282
 Alpha  occ. eigenvalues --   -0.47064  -0.46397  -0.45494  -0.45388  -0.43310
 Alpha  occ. eigenvalues --   -0.42609  -0.42032  -0.36308  -0.35493  -0.34892
 Alpha  occ. eigenvalues --   -0.33313  -0.32762  -0.32415  -0.25610
 Alpha virt. eigenvalues --    0.03935   0.05959   0.07249   0.08661   0.13568
 Alpha virt. eigenvalues --    0.14816   0.15748   0.17416   0.17706   0.18013
 Alpha virt. eigenvalues --    0.18936   0.20124   0.20235   0.21063   0.21761

 Mulliken charges:
               1
     1  C   -0.118782
     2  C    0.178554
     3  O   -0.351954
     4  C   -0.030134
     5  C    0.032114
     6  H    0.059456
     7  H    0.055783
     8  H    0.059765
     9  N   -0.225139
    10  H    0.156385
    11  H    0.168670
    12  H    0.081148
    13  Br  -0.101431
    14  C    0.020277
    15  C   -0.063881
    16  C   -0.024229
    17  C   -0.034917
    18  C   -0.020704
    19  C   -0.066692
    20  H    0.016001
    21  H    0.022997
    22  H    0.023868
    23  H    0.024196
    24  H    0.014960
    25  N   -0.238164
    26  C    0.058109
    27  H    0.152245
    28  H    0.060064
    29  H    0.042438
    30  H    0.048999
 Sum of Mulliken charges =  -0.00000

 Dipole moment (field-independent basis, Debye):
    X=              1.6298    Y=             -1.2364    Z=              2.3356  Tot=              3.1049
 Quadrupole moment (field-independent basis, Debye-Ang):
   XX=           -101.0768   YY=            -93.8210   ZZ=            -94.4618
   XY=              7.1983   XZ=             -5.0623   YZ=             -5.1839

 Normal termination of Gaussian 16 at Tue Dec 19 17:33:04 2023.
