 Gaussian 16, Revision C.01,
 Gaussian 16:  ES64L-G16RevC.01  3-Jul-2019

 -----------------------------------------------------------
 # wb97xd def2svp scrf=(iefpcm,solvent=toluene) freq=noraman
 -----------------------------------------------------------

 ------------------------
 TS-325_opt_sqm_reopt.out
 ------------------------
 Symbolic Z-matrix:
 Charge =  0 Multiplicity = 1

                         Standard orientation:
 ---------------------------------------------------------------------
 Center     Atomic      Atomic             Coordinates (Angstroms)
 Number     Number       Type             X           Y           Z
 ---------------------------------------------------------------------
      1          6           0       -0.909121   -0.705529    0.186750
      2          6           0       -2.289311   -0.460519    0.151440
      3          8           0       -2.856641    0.640011    0.028440
      4          6           0        0.049879    0.412250    0.270980
      5          6           0       -0.801970    2.637111   -1.057170
      6          1           0       -0.190780    3.335520   -0.476000
      7          1           0       -0.914490    3.017931   -2.080860
      8          1           0       -1.783870    2.488591   -0.595550
      9          7           0       -0.141301    1.319340   -1.109370
     10          1           0       -0.703861    0.675150   -1.674370
     11          1           0        0.772979    1.396910   -1.562140
     12          6           0        1.494549   -0.073790    0.161450
     13          6           0        1.839109   -0.978720   -0.855280
     14          6           0        3.150379   -1.419291   -1.012620
     15          6           0        4.149169   -0.967951   -0.149470
     16          6           0        3.821369   -0.072801    0.865510
     17          6           0        2.507769    0.374320    1.016040
     18          1           0        1.058599   -1.353630   -1.521880
     19          1           0        3.391748   -2.126281   -1.809440
     20          1           0        5.177739   -1.315801   -0.266670
     21          1           0        4.592859    0.284029    1.551420
     22          1           0        2.281559    1.073160    1.821590
     23          6           0       -0.184911    1.368850    1.438730
     24          1           0       -1.243861    1.649611    1.471350
     25          1           0        0.045529    0.824450    2.363940
     26          1           0        0.436640    2.277320    1.410110
     27          1           0       -0.543392   -1.729130    0.238060
     28          8           0       -3.050982   -1.599479    0.222360
     29          6           0       -4.439811   -1.426238    0.098710
     30          1           0       -4.887562   -2.426198    0.173270
     31          1           0       -4.847401   -0.782768    0.894520
     32          1           0       -4.714931   -0.974648   -0.868570
 ---------------------------------------------------------------------

 SCF Done:  E(RwB97XD) =  -671.970647970     A.U. after   14 cycles

 The electronic state is 1-A.
 Alpha  occ. eigenvalues --  -19.24619 -19.17819 -14.54342 -10.36532 -10.36361
 Alpha  occ. eigenvalues --  -10.34730 -10.32111 -10.31934 -10.31140 -10.31126
 Alpha  occ. eigenvalues --  -10.31095 -10.31049 -10.31005 -10.28937 -10.22715
 Alpha  occ. eigenvalues --   -1.13992  -1.07636  -1.03755  -0.96408  -0.89826
 Alpha  occ. eigenvalues --   -0.84787  -0.83123  -0.80999  -0.79895  -0.75075
 Alpha  occ. eigenvalues --   -0.71462  -0.69854  -0.66556  -0.65822  -0.62400
 Alpha  occ. eigenvalues --   -0.60917  -0.58527  -0.57618  -0.55609  -0.54046
 Alpha  occ. eigenvalues --   -0.53586  -0.52956  -0.52139  -0.51676  -0.50916
 Alpha  occ. eigenvalues --   -0.49317  -0.48658  -0.46590  -0.46312  -0.46077
 Alpha  occ. eigenvalues --   -0.45526  -0.44040  -0.43310  -0.42337  -0.41806
 Alpha  occ. eigenvalues --   -0.39538  -0.34172  -0.34019  -0.33903  -0.30969
 Alpha  occ. eigenvalues --   -0.23593
 Alpha virt. eigenvalues --    0.04213   0.05020   0.11320   0.13420   0.14063
 Alpha virt. eigenvalues --    0.15163   0.16706   0.18041   0.18346   0.18437
 Alpha virt. eigenvalues --    0.19102   0.20534   0.21306   0.21871   0.22312

 Mulliken charges:
               1
     1  C   -0.307262
     2  C    0.269673
     3  O   -0.419787
     4  C   -0.099775
     5  C    0.026826
     6  H    0.067090
     7  H    0.072563
     8  H    0.103009
     9  N   -0.112742
    10  H    0.186906
    11  H    0.182620
    12  C   -0.002543
    13  C   -0.060088
    14  C   -0.018960
    15  C   -0.015138
    16  C   -0.022471
    17  C   -0.038048
    18  H    0.020914
    19  H    0.031513
    20  H    0.032358
    21  H    0.029939
    22  H    0.018419
    23  C    0.063200
    24  H    0.060938
    25  H    0.056342
    26  H    0.016909
    27  H    0.000928
    28  O   -0.373269
    29  C    0.151908
    30  H    0.032985
    31  H    0.026210
    32  H    0.018835
 Sum of Mulliken charges =  -0.00000

 Dipole moment (field-independent basis, Debye):
    X=              5.2352    Y=              4.0266    Z=             -3.3731  Tot=              7.4161
 Quadrupole moment (field-independent basis, Debye-Ang):
   XX=            -92.5030   YY=            -85.3928   ZZ=            -82.7114
   XY=              0.2260   XZ=              2.1478   YZ=             -1.0254

  Exact polarizability:     214.962      -5.113     142.529       4.734      16.512     130.914
 Approx polarizability:     183.473      -7.312     145.871       5.595      18.326     138.906

 ******    1 imaginary frequencies (negative Signs) ******

                      1                      2                      3
                      A                      A                      A
 Frequencies --    -74.5713                49.5502                73.3270
 Red. masses --      2.8233                 3.8071                 3.0740
 Frc consts  --      0.0093                 0.0055                 0.0097
 IR Inten    --      2.1212                 0.5094                 5.3228

                      4                      5                      6
                      A                      A                      A
 Frequencies --     84.7633               102.4237               118.4035
 Red. masses --      4.4206                 1.8561                 2.1306
 Frc consts  --      0.0187                 0.0115                 0.0176
 IR Inten    --      5.2175                 7.4833                 4.1022

                      7                      8                      9
                      A                      A                      A
 Frequencies --    137.3289               159.9014               215.2658
 Red. masses --      3.6248                 2.1907                 3.7239
 Frc consts  --      0.0403                 0.0330                 0.1017
 IR Inten    --      1.2495                 1.7779                19.0280

                     10                     11                     12
                      A                      A                      A
 Frequencies --    237.0037               265.3324               284.4661
 Red. masses --      3.4955                 1.3532                 3.5166
 Frc consts  --      0.1157                 0.0561                 0.1677
 IR Inten    --     36.9517                 1.2749                 1.3223

                     13                     14                     15
                      A                      A                      A
 Frequencies --    298.5021               320.2462               357.1565
 Red. masses --      3.2189                 3.7029                 3.0824
 Frc consts  --      0.1690                 0.2238                 0.2317
 IR Inten    --     21.7590                12.2894                36.0022

                     16                     17                     18
                      A                      A                      A
 Frequencies --    374.6571               393.1844               403.6840
 Red. masses --      3.8753                 2.1494                 1.3012
 Frc consts  --      0.3205                 0.1958                 0.1249
 IR Inten    --     19.0995                10.8088                 5.8946

                     19                     20                     21
                      A                      A                      A
 Frequencies --    426.1009               460.8544               545.4253
 Red. masses --      2.6096                 2.9887                 2.8883
 Frc consts  --      0.2792                 0.3740                 0.5062
 IR Inten    --      0.1308                 8.5076                20.8346

                     22                     23                     24
                      A                      A                      A
 Frequencies --    567.5664               604.3677               623.3824
 Red. masses --      1.8446                 3.1865                 2.0245
 Frc consts  --      0.3501                 0.6857                 0.4635
 IR Inten    --     13.3852                29.5652               126.2003

                     25                     26                     27
                      A                      A                      A
 Frequencies --    636.1850               726.7186               730.7613
 Red. masses --      6.0245                 4.7218                 1.6528
 Frc consts  --      1.4366                 1.4692                 0.5200
 IR Inten    --      3.2004                 7.9388                39.8606

                     28                     29                     30
                      A                      A                      A
 Frequencies --    755.8799               789.6539               808.3643
 Red. masses --      2.0662                 7.1621                 2.2006
 Frc consts  --      0.6955                 2.6313                 0.8472
 IR Inten    --     61.0109                25.0968                 7.6818

                     31                     32                     33
                      A                      A                      A
 Frequencies --    843.1172               880.0928               941.7204
 Red. masses --      1.8756                 1.2460                 2.8254
 Frc consts  --      0.7856                 0.5686                 1.4763
 IR Inten    --     21.7417                 0.1399                64.2971

                     34                     35                     36
                      A                      A                      A
 Frequencies --    969.1163               989.0794              1019.4615
 Red. masses --      1.5306                 3.0418                 5.2795
 Frc consts  --      0.8470                 1.7532                 3.2329
 IR Inten    --      2.0508                38.5376                 2.0549

                     37                     38                     39
                      A                      A                      A
 Frequencies --   1023.5302              1044.0995              1054.1383
 Red. masses --      1.3920                 1.3397                 1.8433
 Frc consts  --      0.8592                 0.8605                 1.2068
 IR Inten    --      0.6028                 0.3346                26.4713

                     40                     41                     42
                      A                      A                      A
 Frequencies --   1061.1134              1067.3846              1085.1206
 Red. masses --      2.0795                 1.9718                 1.3283
 Frc consts  --      1.3796                 1.3236                 0.9215
 IR Inten    --     12.2998                21.8047                48.4127

                     43                     44                     45
                      A                      A                      A
 Frequencies --   1097.9182              1118.0790              1141.5958
 Red. masses --      1.8774                 1.6009                 2.3047
 Frc consts  --      1.3334                 1.1791                 1.7697
 IR Inten    --     14.9392                19.8916                57.7939

                     46                     47                     48
                      A                      A                      A
 Frequencies --   1151.7800              1177.0808              1182.6987
 Red. masses --      1.7429                 1.0922                 1.2935
 Frc consts  --      1.3623                 0.8916                 1.0660
 IR Inten    --      6.8532                 1.3183                 1.3659

                     49                     50                     51
                      A                      A                      A
 Frequencies --   1204.6399              1208.2991              1214.0786
 Red. masses --      1.6693                 1.4399                 1.4241
 Frc consts  --      1.4272                 1.2386                 1.2367
 IR Inten    --    157.9113               205.0813               130.2850

                     52                     53                     54
                      A                      A                      A
 Frequencies --   1264.8535              1301.8034              1319.4834
 Red. masses --      3.0638                 2.9935                 1.4439
 Frc consts  --      2.8880                 2.9890                 1.4811
 IR Inten    --     41.8157                74.3564                80.6941

                     55                     56                     57
                      A                      A                      A
 Frequencies --   1340.5732              1352.7450              1373.3895
 Red. masses --      1.4461                 1.4070                 3.5592
 Frc consts  --      1.5312                 1.5170                 3.9554
 IR Inten    --     11.0850                28.2381                 3.5832

                     58                     59                     60
                      A                      A                      A
 Frequencies --   1395.1306              1428.6525              1441.4562
 Red. masses --      1.3965                 1.1724                 1.4385
 Frc consts  --      1.6014                 1.4099                 1.7610
 IR Inten    --     22.7838                21.4016               214.4822

                     61                     62                     63
                      A                      A                      A
 Frequencies --   1459.6390              1464.2891              1481.0990
 Red. masses --      1.0427                 1.0824                 1.1184
 Frc consts  --      1.3088                 1.3674                 1.4455
 IR Inten    --      5.9799                 5.9177               189.3550

                     64                     65                     66
                      A                      A                      A
 Frequencies --   1483.0561              1485.6545              1495.6496
 Red. masses --      1.1131                 1.1615                 1.8792
 Frc consts  --      1.4425                 1.5105                 2.4767
 IR Inten    --     47.9455                16.9829                17.5915

                     67                     68                     69
                      A                      A                      A
 Frequencies --   1510.1433              1515.2607              1545.2100
 Red. masses --      1.0480                 1.9171                 2.4549
 Frc consts  --      1.4082                 2.5933                 3.4535
 IR Inten    --      4.4851               315.7345                 9.5446

                     70                     71                     72
                      A                      A                      A
 Frequencies --   1606.9980              1671.0205              1696.3296
 Red. masses --      1.0942                 6.1867                 6.4017
 Frc consts  --      1.6648                10.1783                10.8534
 IR Inten    --     22.2446                10.8514                87.7101

                     73                     74                     75
                      A                      A                      A
 Frequencies --   1707.5971              3037.1100              3058.9880
 Red. masses --      8.2879                 1.0329                 1.0417
 Frc consts  --     14.2385                 5.6135                 5.7431
 IR Inten    --    597.2504                89.3934                33.8069

                     76                     77                     78
                      A                      A                      A
 Frequencies --   3086.2704              3121.3277              3159.6408
 Red. masses --      1.0342                 1.1061                 1.0998
 Frc consts  --      5.8040                 6.3492                 6.4688
 IR Inten    --     39.9026                43.0412                17.0630

                     79                     80                     81
                      A                      A                      A
 Frequencies --   3164.1988              3195.9717              3198.9293
 Red. masses --      1.1059                 1.1048                 1.1060
 Frc consts  --      6.5239                 6.6485                 6.6682
 IR Inten    --     32.4006                 2.9408                 7.4151

                     82                     83                     84
                      A                      A                      A
 Frequencies --   3201.6437              3208.5699              3216.9430
 Red. masses --      1.0869                 1.0902                 1.0950
 Frc consts  --      6.5642                 6.6129                 6.6765
 IR Inten    --      1.0347                 1.4560                12.8540

                     85                     86                     87
                      A                      A                      A
 Frequencies --   3227.1227              3231.5016              3242.5352
 Red. masses --      1.0997                 1.1100                 1.0944
 Frc consts  --      6.7476                 6.8296                 6.7793
 IR Inten    --     17.4146                 8.4062                 4.8299

                     88                     89                     90
                      A                      A                      A
 Frequencies --   3253.1676              3470.8454              3557.6174
 Red. masses --      1.0911                 1.0559                 1.0953
 Frc consts  --      6.8033                 7.4945                 8.1677
 IR Inten    --      3.0066                28.3199                74.0290

 - Thermochemistry -
 -------------------
 Temperature   298.150 Kelvin.  Pressure   1.00000 Atm.
 Atom     1 has atomic number  6 and mass  12.00000

 Molecular mass:   207.12593 amu.
 Principal axes and moments of inertia in atomic units:
                           1         2         3
     Eigenvalues --  1618.044435423.609356083.54927
           X            1.00000   0.00106   0.00228
           Y           -0.00110   0.99988   0.01541
           Z           -0.00227  -0.01542   0.99988
 This molecule is an asymmetric top.
 Rotational symmetry number  1.
 Warning -- assumption of classical behavior for rotation
           may cause significant error
 Rotational temperatures (Kelvin)      0.05353     0.01597     0.01424
 Rotational constants (GHZ):           1.11538     0.33276     0.29666
    1 imaginary frequencies ignored.
 Zero-point vibrational energy     723722.9 (Joules/Mol)
                                  172.97392 (Kcal/Mol)
 Warning -- explicit consideration of  22 degrees of freedom as
           vibrations may cause significant error
 Vibrational temperatures:     71.29   105.50   121.96   147.36   170.36
          (Kelvin)            197.59   230.06   309.72   341.00   381.75
                              409.28   429.48   460.76   513.87   539.05
                              565.70   580.81   613.06   663.07   784.75
                              816.60   869.55   896.91   915.33  1045.59
                             1051.40  1087.54  1136.14  1163.06  1213.06
                             1266.26  1354.93  1394.34  1423.06  1466.78
                             1472.63  1502.23  1516.67  1526.71  1535.73
                             1561.25  1579.66  1608.67  1642.50  1657.15
                             1693.56  1701.64  1733.21  1738.47  1746.79
                             1819.84  1873.00  1898.44  1928.79  1946.30
                             1976.00  2007.28  2055.51  2073.93  2100.09
                             2106.79  2130.97  2133.79  2137.53  2151.91
                             2172.76  2180.12  2223.21  2312.11  2404.23
                             2440.64  2456.85  4369.72  4401.20  4440.45
                             4490.89  4546.02  4552.58  4598.29  4602.55
                             4606.45  4616.42  4628.46  4643.11  4649.41
                             4665.28  4680.58  4993.77  5118.62

 Zero-point correction=                           0.275651 (Hartree/Particle)
 Thermal correction to Energy=                    0.290253
 Thermal correction to Enthalpy=                  0.291197
 Thermal correction to Gibbs Free Energy=         0.234296
 Sum of electronic and zero-point Energies=           -671.694996
 Sum of electronic and thermal Energies=              -671.680395
 Sum of electronic and thermal Enthalpies=            -671.679451
 Sum of electronic and thermal Free Energies=         -671.736352

                     E (Thermal)             CV                S
                      KCal/Mol        Cal/Mol-Kelvin    Cal/Mol-Kelvin
 Total                  182.137             56.159            119.759
 Electronic               0.000              0.000              0.000
 Translational            0.889              2.981             41.888
 Rotational               0.889              2.981             32.346
 Vibrational            180.359             50.198             45.524
 Vibration     1          0.595              1.978              4.835
 Vibration     2          0.599              1.967              4.062
 Vibration     3          0.601              1.960              3.777
 Vibration     4          0.604              1.947              3.408
 Vibration     5          0.609              1.934              3.126
 Vibration     6          0.614              1.916              2.841
 Vibration     7          0.622              1.891              2.551
 Vibration     8          0.645              1.818              1.999
 Vibration     9          0.656              1.784              1.825
 Vibration    10          0.671              1.737              1.626
 Vibration    11          0.683              1.702              1.507
 Vibration    12          0.692              1.677              1.425
 Vibration    13          0.706              1.635              1.309
 Vibration    14          0.732              1.561              1.134
 Vibration    15          0.746              1.524              1.061
 Vibration    16          0.760              1.485              0.988
 Vibration    17          0.769              1.462              0.949
 Vibration    18          0.788              1.413              0.871
 Vibration    19          0.819              1.337              0.764
 Vibration    20          0.901              1.150              0.554
 Vibration    21          0.924              1.101              0.509
 Vibration    22          0.963              1.023              0.442

 Optimization completed.
    -- Stationary point found.
 Normal termination of Gaussian 16 at Sat Dec 30 21:04:43 2023.
