 Gaussian 16, Revision C.01,
 Gaussian 16:  ES64L-G16RevC.01  3-Jul-2019

 ----------------------------------------------------------------------
 # wb97xd def2svp geom=allchk scrf=(iefpcm,solvent=toluene) opt=(readfc
 ,ts,noeigen,maxcycles=50,maxstep=10)
 ----------------------------------------------------------------------

 Structure from the checkpoint file:  "TS-325_opt_sqm_re.chk"
 ---------------------
 TS-325_opt_sqm_re.out
 ---------------------
 Charge =  0 Multiplicity = 1

 SCF Done:  E(RwB97XD) =  -3186.16689178     A.U. after   15 cycles
 SCF Done:  E(RwB97XD) =  -3186.16674514     A.U. after   12 cycles
 SCF Done:  E(RwB97XD) =  -3186.16689014     A.U. after   12 cycles
 SCF Done:  E(RwB97XD) =  -3186.16679874     A.U. after   12 cycles
 SCF Done:  E(RwB97XD) =  -3186.16679010     A.U. after   12 cycles
 SCF Done:  E(RwB97XD) =  -3186.16674983     A.U. after   12 cycles
 SCF Done:  E(RwB97XD) =  -3186.16664780     A.U. after   13 cycles
 SCF Done:  E(RwB97XD) =  -3186.16661068     A.U. after   12 cycles
 SCF Done:  E(RwB97XD) =  -3186.16655174     A.U. after   12 cycles
 SCF Done:  E(RwB97XD) =  -3186.16650753     A.U. after   12 cycles
 SCF Done:  E(RwB97XD) =  -3186.16680431     A.U. after   12 cycles
 SCF Done:  E(RwB97XD) =  -3186.16694369     A.U. after   12 cycles
 SCF Done:  E(RwB97XD) =  -3186.16692598     A.U. after   11 cycles
 SCF Done:  E(RwB97XD) =  -3186.16695369     A.U. after   11 cycles
 SCF Done:  E(RwB97XD) =  -3186.16694220     A.U. after   10 cycles
 SCF Done:  E(RwB97XD) =  -3186.16689309     A.U. after   12 cycles
 SCF Done:  E(RwB97XD) =  -3186.16695272     A.U. after   11 cycles
 SCF Done:  E(RwB97XD) =  -3186.16695097     A.U. after   10 cycles
 SCF Done:  E(RwB97XD) =  -3186.16695675     A.U. after   10 cycles
 SCF Done:  E(RwB97XD) =  -3186.16695673     A.U. after    8 cycles
 Optimization completed.
    -- Stationary point found.

                         Standard orientation:
 ---------------------------------------------------------------------
 Center     Atomic      Atomic             Coordinates (Angstroms)
 Number     Number       Type             X           Y           Z
 ---------------------------------------------------------------------
      1          6           0        0.100745    0.100341   -0.110384
      2          6           0       -0.334129    1.502489    0.041735
      3          8           0       -1.345202    1.805980    0.686702
      4          6           0       -0.849843   -0.891986    0.025153
      5          6           0       -0.506875   -0.981295    2.855175
      6          1           0       -0.765236   -0.589447    3.851583
      7          1           0       -0.259866   -2.048155    2.945737
      8          1           0        0.385816   -0.447724    2.494280
      9          7           0       -1.566166   -0.794052    1.885556
     10          1           0       -2.391773   -1.367277    2.050866
     11          1           0       -1.829600    0.195018    1.780397
     12          1           0       -0.517373   -1.931711    0.033816
     13         35           0       -2.583068   -0.800387   -0.844347
     14          6           0        1.531158   -0.279983   -0.191486
     15          6           0        2.527179    0.413505    0.524893
     16          6           0        3.864351    0.030811    0.461625
     17          6           0        4.250863   -1.067956   -0.307298
     18          6           0        3.281215   -1.768403   -1.023275
     19          6           0        1.946008   -1.371371   -0.977166
     20          1           0        2.243188    1.263165    1.150459
     21          1           0        4.611222    0.588871    1.031662
     22          1           0        5.299147   -1.370845   -0.351963
     23          1           0        3.567917   -2.622599   -1.641519
     24          1           0        1.206501   -1.905180   -1.579456
     25          7           0        0.442645    2.454458   -0.542147
     26          6           0        0.183049    3.866881   -0.432308
     27          1           0        1.206175    2.143274   -1.128049
     28          1           0        1.088275    4.412657   -0.124544
     29          1           0       -0.175627    4.293882   -1.383094
     30          1           0       -0.597457    4.010741    0.324526
 ---------------------------------------------------------------------

 The electronic state is 1-A.
 Alpha  occ. eigenvalues -- -483.04786 -62.63004 -56.43769 -56.43420 -56.43406
 Alpha  occ. eigenvalues --  -19.20961 -14.47863 -14.45733 -10.38804 -10.38363
 Alpha  occ. eigenvalues --  -10.33227 -10.32140 -10.31341 -10.30155 -10.30110
 Alpha  occ. eigenvalues --  -10.29790 -10.29783 -10.29715 -10.27649  -8.79955
 Alpha  occ. eigenvalues --   -6.62483  -6.61215  -6.61161  -2.72853  -2.72503
 Alpha  occ. eigenvalues --   -2.72460  -2.71450  -2.71449  -1.11373  -1.01252
 Alpha  occ. eigenvalues --   -1.00014  -0.95256  -0.91157  -0.86407  -0.83516
 Alpha  occ. eigenvalues --   -0.80887  -0.78680  -0.77155  -0.70538  -0.68886
 Alpha  occ. eigenvalues --   -0.67614  -0.65516  -0.62058  -0.61068  -0.57573
 Alpha  occ. eigenvalues --   -0.56099  -0.55345  -0.54619  -0.53139  -0.52657
 Alpha  occ. eigenvalues --   -0.52078  -0.51269  -0.50127  -0.49337  -0.47282
 Alpha  occ. eigenvalues --   -0.47064  -0.46397  -0.45494  -0.45388  -0.43310
 Alpha  occ. eigenvalues --   -0.42609  -0.42032  -0.36308  -0.35492  -0.34892
 Alpha  occ. eigenvalues --   -0.33313  -0.32762  -0.32415  -0.25610
 Alpha virt. eigenvalues --    0.03935   0.05959   0.07249   0.08662   0.13568
 Alpha virt. eigenvalues --    0.14816   0.15748   0.17415   0.17706   0.18013
 Alpha virt. eigenvalues --    0.18936   0.20124   0.20235   0.21064   0.21760

 Mulliken charges:
               1
     1  C   -0.118803
     2  C    0.178550
     3  O   -0.351960
     4  C   -0.030111
     5  C    0.032111
     6  H    0.059443
     7  H    0.055775
     8  H    0.059766
     9  N   -0.225158
    10  H    0.156374
    11  H    0.168663
    12  H    0.081144
    13  Br  -0.101421
    14  C    0.020277
    15  C   -0.063848
    16  C   -0.024232
    17  C   -0.034916
    18  C   -0.020704
    19  C   -0.066694
    20  H    0.015992
    21  H    0.023000
    22  H    0.023869
    23  H    0.024196
    24  H    0.014961
    25  N   -0.238133
    26  C    0.058102
    27  H    0.152243
    28  H    0.042433
    29  H    0.049009
    30  H    0.060074
 Sum of Mulliken charges =  -0.00000

 Dipole moment (field-independent basis, Debye):
    X=              1.6306    Y=             -1.2358    Z=              2.3346  Tot=              3.1042
 Quadrupole moment (field-independent basis, Debye-Ang):
   XX=           -101.0778   YY=            -93.8166   ZZ=            -94.4644
   XY=              7.1977   XZ=             -5.0592   YZ=             -5.1843

 Normal termination of Gaussian 16 at Sat Dec 30 16:57:48 2023.
