 Gaussian 16, Revision C.01,
 Gaussian 16:  ES64L-G16RevC.01  3-Jul-2019

 -----------------------------------------------------------
 # wb97xd def2svp scrf=(iefpcm,solvent=toluene) freq=noraman
 -----------------------------------------------------------

 -----------------
 TS-325_opt_hf.out
 -----------------
 Symbolic Z-matrix:
 Charge =  0 Multiplicity = 1

                         Standard orientation:
 ---------------------------------------------------------------------
 Center     Atomic      Atomic             Coordinates (Angstroms)
 Number     Number       Type             X           Y           Z
 ---------------------------------------------------------------------
      1          6           0        0.100750    0.100340   -0.110280
      2          6           0       -0.334027    1.502551    0.041550
      3          8           0       -1.345277    1.806273    0.686130
      4          6           0       -0.849882   -0.891928    0.025350
      5          6           0       -0.507252   -0.980428    2.855490
      6          1           0       -0.765761   -0.588078    3.851670
      7          1           0       -0.260294   -2.047279    2.946620
      8          1           0        0.385489   -0.447100    2.494450
      9          7           0       -1.566392   -0.793657    1.885640
     10          1           0       -2.391903   -1.367025    2.050840
     11          1           0       -1.829970    0.195344    1.780190
     12          1           0       -0.517444   -1.931648    0.034230
     13         35           0       -2.583042   -0.800495   -0.844360
     14          6           0        1.531129   -0.280102   -0.191370
     15          6           0        2.527241    0.413456    0.524810
     16          6           0        3.864400    0.030704    0.461490
     17          6           0        4.250778   -1.068277   -0.307180
     18          6           0        3.281037   -1.768825   -1.022940
     19          6           0        1.945867   -1.371693   -0.976840
     20          1           0        2.243342    1.263196    1.150330
     21          1           0        4.611351    0.588902    1.031280
     22          1           0        5.299037   -1.371279   -0.351820
     23          1           0        3.567655   -2.623186   -1.641000
     24          1           0        1.206276   -1.905582   -1.578960
     25          7           0        0.443094    2.454370   -0.542130
     26          6           0        0.183447    3.866820   -0.432730
     27          1           0        1.206594    2.143028   -1.127980
     28          1           0       -0.597953    4.010862    0.323000
     29          1           0        1.088428    4.412549   -0.123910
     30          1           0       -0.174012    4.293731   -1.384030
 ---------------------------------------------------------------------

 SCF Done:  E(RwB97XD) =  -3186.16695677     A.U. after   15 cycles

 The electronic state is 1-A.
 Alpha  occ. eigenvalues -- -483.04786 -62.63004 -56.43769 -56.43420 -56.43406
 Alpha  occ. eigenvalues --  -19.20960 -14.47864 -14.45732 -10.38804 -10.38363
 Alpha  occ. eigenvalues --  -10.33228 -10.32139 -10.31341 -10.30154 -10.30110
 Alpha  occ. eigenvalues --  -10.29790 -10.29783 -10.29715 -10.27649  -8.79955
 Alpha  occ. eigenvalues --   -6.62483  -6.61216  -6.61161  -2.72853  -2.72503
 Alpha  occ. eigenvalues --   -2.72460  -2.71450  -2.71449  -1.11372  -1.01254
 Alpha  occ. eigenvalues --   -1.00014  -0.95256  -0.91157  -0.86407  -0.83516
 Alpha  occ. eigenvalues --   -0.80887  -0.78680  -0.77156  -0.70538  -0.68886
 Alpha  occ. eigenvalues --   -0.67614  -0.65516  -0.62060  -0.61068  -0.57573
 Alpha  occ. eigenvalues --   -0.56099  -0.55344  -0.54619  -0.53139  -0.52658
 Alpha  occ. eigenvalues --   -0.52079  -0.51269  -0.50127  -0.49336  -0.47282
 Alpha  occ. eigenvalues --   -0.47064  -0.46398  -0.45494  -0.45388  -0.43310
 Alpha  occ. eigenvalues --   -0.42609  -0.42032  -0.36308  -0.35493  -0.34892
 Alpha  occ. eigenvalues --   -0.33313  -0.32762  -0.32415  -0.25610
 Alpha virt. eigenvalues --    0.03935   0.05959   0.07249   0.08661   0.13568
 Alpha virt. eigenvalues --    0.14816   0.15748   0.17416   0.17706   0.18013
 Alpha virt. eigenvalues --    0.18936   0.20124   0.20235   0.21063   0.21761

 Mulliken charges:
               1
     1  C   -0.118784
     2  C    0.178555
     3  O   -0.351954
     4  C   -0.030131
     5  C    0.032113
     6  H    0.059454
     7  H    0.055782
     8  H    0.059764
     9  N   -0.225141
    10  H    0.156382
    11  H    0.168673
    12  H    0.081146
    13  Br  -0.101430
    14  C    0.020273
    15  C   -0.063879
    16  C   -0.024229
    17  C   -0.034919
    18  C   -0.020704
    19  C   -0.066691
    20  H    0.016000
    21  H    0.022998
    22  H    0.023870
    23  H    0.024196
    24  H    0.014960
    25  N   -0.238160
    26  C    0.058108
    27  H    0.152246
    28  H    0.060064
    29  H    0.042438
    30  H    0.048999
 Sum of Mulliken charges =  -0.00000

 Dipole moment (field-independent basis, Debye):
    X=              1.6298    Y=             -1.2363    Z=              2.3355  Tot=              3.1047
 Quadrupole moment (field-independent basis, Debye-Ang):
   XX=           -101.0768   YY=            -93.8210   ZZ=            -94.4621
   XY=              7.1982   XZ=             -5.0622   YZ=             -5.1839

  Exact polarizability:     235.112       3.168     170.895      -8.236       9.864     146.742
 Approx polarizability:     213.488       3.839     166.668      -4.950      14.720     150.638

 ******    1 imaginary frequencies (negative Signs) ******

                      1                      2                      3
                      A                      A                      A
 Frequencies --   -351.6729                38.6641                59.6011
 Red. masses --      5.4053                 4.1672                 3.8864
 Frc consts  --      0.3939                 0.0037                 0.0081
 IR Inten    --    474.0144                 2.2631                 3.8361

                      4                      5                      6
                      A                      A                      A
 Frequencies --     64.3671                72.9289                85.6564
 Red. masses --      3.4018                 1.5934                 1.8579
 Frc consts  --      0.0083                 0.0050                 0.0080
 IR Inten    --      1.0662                 0.3102                 0.1485

                      7                      8                      9
                      A                      A                      A
 Frequencies --     94.1225               100.3130               142.0940
 Red. masses --      3.6942                 7.9398                 2.5517
 Frc consts  --      0.0193                 0.0471                 0.0304
 IR Inten    --      0.8410                 6.4632                 8.2433

                     10                     11                     12
                      A                      A                      A
 Frequencies --    160.9251               163.1800               202.5901
 Red. masses --      2.3566                 3.3176                 1.7136
 Frc consts  --      0.0360                 0.0520                 0.0414
 IR Inten    --      2.9431                11.1184                 7.2970

                     13                     14                     15
                      A                      A                      A
 Frequencies --    226.1823               261.1396               269.5181
 Red. masses --      4.2689                 4.8957                 4.2099
 Frc consts  --      0.1287                 0.1967                 0.1802
 IR Inten    --      2.0674                 8.5568                25.0912

                     16                     17                     18
                      A                      A                      A
 Frequencies --    314.5782               334.5922               419.1177
 Red. masses --      3.5890                 4.1448                 7.0598
 Frc consts  --      0.2093                 0.2734                 0.7307
 IR Inten    --     51.5082                 2.9743                14.7872

                     19                     20                     21
                      A                      A                      A
 Frequencies --    425.1534               475.3785               519.4797
 Red. masses --      2.8939                 3.7606                 3.4137
 Frc consts  --      0.3082                 0.5007                 0.5428
 IR Inten    --      3.6101                33.7131                39.9100

                     22                     23                     24
                      A                      A                      A
 Frequencies --    568.1045               579.8640               628.7774
 Red. masses --      2.3896                 1.4768                 3.8543
 Frc consts  --      0.4544                 0.2926                 0.8978
 IR Inten    --     42.7393                46.7292                28.1350

                     25                     26                     27
                      A                      A                      A
 Frequencies --    641.2015               708.6007               723.9882
 Red. masses --      4.6730                 1.9656                 2.7038
 Frc consts  --      1.1320                 0.5815                 0.8350
 IR Inten    --     12.5131                32.0700                41.8558

                     28                     29                     30
                      A                      A                      A
 Frequencies --    732.1410               792.1571               816.1437
 Red. masses --      1.7718                 3.5375                 3.4843
 Frc consts  --      0.5596                 1.3079                 1.3674
 IR Inten    --    141.4549                 9.7550                53.5886

                     31                     32                     33
                      A                      A                      A
 Frequencies --    842.6339               870.2953               944.1427
 Red. masses --      3.7203                 1.2505                 1.4771
 Frc consts  --      1.5563                 0.5581                 0.7758
 IR Inten    --     17.1226                 1.4542                 2.0545

                     34                     35                     36
                      A                      A                      A
 Frequencies --    959.9929               994.3502              1011.6664
 Red. masses --      1.0933                 2.7054                 1.5997
 Frc consts  --      0.5937                 1.5760                 0.9646
 IR Inten    --     81.2882                 6.0851                 0.1587

                     37                     38                     39
                      A                      A                      A
 Frequencies --   1017.1364              1033.0961              1038.7877
 Red. masses --      3.4065                 1.3256                 1.3120
 Frc consts  --      2.0764                 0.8336                 0.8342
 IR Inten    --      0.5395                 0.5522                23.7976

                     40                     41                     42
                      A                      A                      A
 Frequencies --   1065.6415              1077.8196              1110.6947
 Red. masses --      1.9160                 1.1294                 1.4941
 Frc consts  --      1.2820                 0.7730                 1.0860
 IR Inten    --      6.8964                95.9252                13.4933

                     43                     44                     45
                      A                      A                      A
 Frequencies --   1120.2002              1124.9752              1149.6381
 Red. masses --      4.1075                 2.9572                 1.2989
 Frc consts  --      3.0368                 2.2050                 1.0115
 IR Inten    --     42.7067                 4.2849                 5.5781

                     46                     47                     48
                      A                      A                      A
 Frequencies --   1172.7099              1174.8947              1181.9787
 Red. masses --      1.0904                 1.8318                 1.4016
 Frc consts  --      0.8835                 1.4898                 1.1537
 IR Inten    --      1.1674                33.8376                27.5314

                     49                     50                     51
                      A                      A                      A
 Frequencies --   1200.5624              1240.0601              1286.0794
 Red. masses --      1.1095                 1.3733                 2.2807
 Frc consts  --      0.9422                 1.2442                 2.2225
 IR Inten    --      2.2678                14.1729                60.2513

                     52                     53                     54
                      A                      A                      A
 Frequencies --   1314.8640              1333.6894              1361.5572
 Red. masses --      1.9006                 1.3022                 2.2674
 Frc consts  --      1.9360                 1.3647                 2.4766
 IR Inten    --     73.5348                 6.8066                26.3220

                     55                     56                     57
                      A                      A                      A
 Frequencies --   1364.4125              1430.4896              1439.4485
 Red. masses --      3.3980                 1.2034                 1.2852
 Frc consts  --      3.7271                 1.4509                 1.5689
 IR Inten    --     92.2661                31.7214                90.0317

                     58                     59                     60
                      A                      A                      A
 Frequencies --   1472.0805              1474.0381              1476.5930
 Red. masses --      1.0605                 1.7293                 1.3399
 Frc consts  --      1.3540                 2.2138                 1.7213
 IR Inten    --      5.6912               172.4496                17.5362

                     61                     62                     63
                      A                      A                      A
 Frequencies --   1485.7137              1489.7145              1509.8848
 Red. masses --      1.0872                 1.0470                 3.6996
 Frc consts  --      1.4140                 1.3690                 4.9693
 IR Inten    --     31.7095                16.4297               161.2939

                     64                     65                     66
                      A                      A                      A
 Frequencies --   1540.8496              1597.1103              1624.2147
 Red. masses --      2.7543                 2.1637                 1.1419
 Frc consts  --      3.8528                 3.2518                 1.7749
 IR Inten    --    154.6102               440.5958               112.4725

                     67                     68                     69
                      A                      A                      A
 Frequencies --   1656.2185              1688.6564              1738.6565
 Red. masses --      6.0208                 6.2130                 7.9059
 Frc consts  --      9.7306                10.4384                14.0809
 IR Inten    --     10.1208                78.5961               362.4142

                     70                     71                     72
                      A                      A                      A
 Frequencies --   3041.7692              3047.5873              3122.5833
 Red. masses --      1.0374                 1.0351                 1.1063
 Frc consts  --      5.6554                 5.6642                 6.3554
 IR Inten    --     95.7706                49.4295                27.2532

                     73                     74                     75
                      A                      A                      A
 Frequencies --   3141.0881              3167.1169              3190.1255
 Red. masses --      1.1051                 1.1063                 1.1020
 Frc consts  --      6.4242                 6.5381                 6.6079
 IR Inten    --     10.4311                11.0777                 0.6096

                     76                     77                     78
                      A                      A                      A
 Frequencies --   3194.7801              3199.1963              3209.3532
 Red. masses --      1.0860                 1.0892                 1.0929
 Frc consts  --      6.5306                 6.5679                 6.6326
 IR Inten    --      8.6729                 0.2913                 6.4994

                     79                     80                     81
                      A                      A                      A
 Frequencies --   3213.7517              3225.2150              3229.3980
 Red. masses --      1.0970                 1.1009                 1.0932
 Frc consts  --      6.6756                 6.7468                 6.7173
 IR Inten    --     28.6532                16.7056                 2.4426

                     82                     83                     84
                      A                      A                      A
 Frequencies --   3417.2407              3607.9728              3678.5557
 Red. masses --      1.0639                 1.0879                 1.0785
 Frc consts  --      7.3196                 8.3440                 8.5985
 IR Inten    --    117.6621                87.9585                56.0701

 - Thermochemistry -
 -------------------
 Temperature   298.150 Kelvin.  Pressure   1.00000 Atm.
 Atom     1 has atomic number  6 and mass  12.00000

 Molecular mass:   270.03677 amu.
 Principal axes and moments of inertia in atomic units:
                           1         2         3
     Eigenvalues --  3139.690425913.570786944.95597
           X            0.99915  -0.02938  -0.02880
           Y            0.02793   0.99839  -0.04938
           Z            0.03021   0.04853   0.99836
 This molecule is an asymmetric top.
 Rotational symmetry number  1.
 Warning -- assumption of classical behavior for rotation
           may cause significant error
 Rotational temperatures (Kelvin)      0.02759     0.01465     0.01247
 Rotational constants (GHZ):           0.57482     0.30519     0.25986
    1 imaginary frequencies ignored.
 Zero-point vibrational energy     651497.3 (Joules/Mol)
                                  155.71159 (Kcal/Mol)
 Warning -- explicit consideration of  22 degrees of freedom as
           vibrations may cause significant error
 Vibrational temperatures:     55.63    85.75    92.61   104.93   123.24
          (Kelvin)            135.42   144.33   204.44   231.54   234.78
                              291.48   325.43   375.72   387.78   452.61
                              481.40   603.02   611.70   683.96   747.42
                              817.38   834.29   904.67   922.55  1019.52
                             1041.66  1053.39  1139.74  1174.25  1212.36
                             1252.16  1358.41  1381.22  1430.65  1455.56
                             1463.43  1486.39  1494.58  1533.22  1550.74
                             1598.04  1611.72  1618.59  1654.07  1687.27
                             1690.41  1700.60  1727.34  1784.17  1850.38
                             1891.80  1918.88  1958.98  1963.09  2058.16
                             2071.05  2118.00  2120.81  2124.49  2137.61
                             2143.37  2172.39  2216.94  2297.89  2336.88
                             2382.93  2429.60  2501.54  4376.43  4384.80
                             4492.70  4519.33  4556.77  4589.88  4596.58
                             4602.93  4617.54  4623.87  4640.37  4646.38
                             4916.65  5191.07  5292.62

 Zero-point correction=                           0.248142 (Hartree/Particle)
 Thermal correction to Energy=                    0.264036
 Thermal correction to Enthalpy=                  0.264980
 Thermal correction to Gibbs Free Energy=         0.202968
 Sum of electronic and zero-point Energies=          -3185.918815
 Sum of electronic and thermal Energies=             -3185.902920
 Sum of electronic and thermal Enthalpies=           -3185.901976
 Sum of electronic and thermal Free Energies=        -3185.963989

                     E (Thermal)             CV                S
                      KCal/Mol        Cal/Mol-Kelvin    Cal/Mol-Kelvin
 Total                  165.685             56.948            130.516
 Electronic               0.000              0.000              0.000
 Translational            0.889              2.981             42.679
 Rotational               0.889              2.981             33.222
 Vibrational            163.908             50.986             54.615
 Vibration     1          0.594              1.981              5.326
 Vibration     2          0.597              1.974              4.470
 Vibration     3          0.597              1.971              4.319
 Vibration     4          0.599              1.967              4.073
 Vibration     5          0.601              1.959              3.757
 Vibration     6          0.603              1.953              3.573
 Vibration     7          0.604              1.949              3.448
 Vibration     8          0.616              1.911              2.775
 Vibration     9          0.622              1.890              2.539
 Vibration    10          0.623              1.888              2.513
 Vibration    11          0.639              1.836              2.109
 Vibration    12          0.650              1.801              1.909
 Vibration    13          0.669              1.744              1.654
 Vibration    14          0.674              1.729              1.599
 Vibration    15          0.702              1.646              1.338
 Vibration    16          0.716              1.606              1.238
 Vibration    17          0.782              1.429              0.895
 Vibration    18          0.787              1.416              0.875
 Vibration    19          0.832              1.305              0.723
 Vibration    20          0.874              1.207              0.611
 Vibration    21          0.924              1.100              0.508
 Vibration    22          0.937              1.075              0.486

 Optimization completed.
    -- Stationary point found.
 Normal termination of Gaussian 16 at Sat Dec 30 21:03:06 2023.
