 Gaussian 16, Revision C.01,
 Gaussian 16:  ES64L-G16RevC.01  3-Jul-2019

 ----------------------------------------------------------------------
 # wb97xd chkbasis guess=read geom=allchk scrf=(iefpcm,solvent=toluene)
  opt=(readfc,ts,noeigen,maxcycles=50,maxstep=10)
 ----------------------------------------------------------------------

 Structure from the checkpoint file:  "imda-1_1_opt_sqm.chk"
 -----------------------
 3a_exo_ts_26_reopt2.out
 -----------------------
 Charge =  0 Multiplicity = 1

 SCF Done:  E(RwB97XD) =  -961.702744340     A.U. after    1 cycles
 SCF Done:  E(RwB97XD) =  -961.702746109     A.U. after   11 cycles
 SCF Done:  E(RwB97XD) =  -961.702751483     A.U. after   11 cycles
 SCF Done:  E(RwB97XD) =  -961.702754371     A.U. after    9 cycles
 SCF Done:  E(RwB97XD) =  -961.702754445     A.U. after    9 cycles
 SCF Done:  E(RwB97XD) =  -961.702755664     A.U. after    9 cycles
 SCF Done:  E(RwB97XD) =  -961.702755319     A.U. after    9 cycles
 SCF Done:  E(RwB97XD) =  -961.702756127     A.U. after   11 cycles
 SCF Done:  E(RwB97XD) =  -961.702757545     A.U. after   11 cycles
 SCF Done:  E(RwB97XD) =  -961.702757792     A.U. after    8 cycles
 SCF Done:  E(RwB97XD) =  -961.702757697     A.U. after    9 cycles
 SCF Done:  E(RwB97XD) =  -961.702758018     A.U. after    9 cycles
 SCF Done:  E(RwB97XD) =  -961.702758099     A.U. after    7 cycles
 Optimization completed.
    -- Stationary point found.

                         Standard orientation:
 ---------------------------------------------------------------------
 Center     Atomic      Atomic             Coordinates (Angstroms)
 Number     Number       Type             X           Y           Z
 ---------------------------------------------------------------------
      1          6           0       -2.467170    0.314924   -0.219372
      2          6           0        0.988611    1.272126    1.116568
      3          6           0       -0.918784   -1.478285   -0.040808
      4          6           0        1.367873   -0.002521    1.098863
      5          6           0       -2.672318   -0.350136    0.939322
      6          6           0       -1.719744   -1.457421    1.046776
      7          6           0        0.227390   -2.403777   -0.322394
      8          1           0        0.463447   -2.978151    0.587732
      9          1           0       -0.074231   -3.148538   -1.079228
     10          6           0        1.487725   -1.714217   -0.857307
     11          1           0        2.260901   -2.451375   -1.120616
     12          1           0        1.250750   -1.189226   -1.800261
     13          6           0        2.164823   -0.663876    0.008653
     14          8           0        3.314250   -0.349291   -0.189255
     15          1           0        1.058700   -0.628395    1.941125
     16          1           0        0.413916    1.710183    1.933716
     17          6           0       -1.346816   -0.364076   -0.959381
     18          1           0       -1.687671   -0.753731   -1.936683
     19          1           0       -0.530310    0.344570   -1.183027
     20         17           0        1.284229    2.383679   -0.187901
     21          6           0       -3.172327    1.524128   -0.739520
     22          1           0       -2.465876    2.359076   -0.879928
     23          1           0       -3.961006    1.855479   -0.049551
     24          1           0       -3.635299    1.329638   -1.720811
     25          1           0       -1.651515   -2.140048    1.896608
     26          1           0       -3.423279   -0.098918    1.690884
 ---------------------------------------------------------------------

 The electronic state is 1-A.
 Alpha  occ. eigenvalues -- -101.68793 -19.25544 -10.40038 -10.36777 -10.32226
 Alpha  occ. eigenvalues --  -10.31259 -10.31231 -10.30185 -10.30079 -10.30049
 Alpha  occ. eigenvalues --  -10.29685 -10.29206 -10.29009  -9.59536  -7.34903
 Alpha  occ. eigenvalues --   -7.33980  -7.33911  -1.14499  -0.97844  -0.96150
 Alpha  occ. eigenvalues --   -0.89929  -0.86025  -0.83820  -0.79555  -0.77587
 Alpha  occ. eigenvalues --   -0.72959  -0.70511  -0.62719  -0.61631  -0.60763
 Alpha  occ. eigenvalues --   -0.59595  -0.57495  -0.55478  -0.54846  -0.53431
 Alpha  occ. eigenvalues --   -0.52541  -0.49932  -0.49800  -0.48956  -0.48601
 Alpha  occ. eigenvalues --   -0.47407  -0.45887  -0.45352  -0.44687  -0.43064
 Alpha  occ. eigenvalues --   -0.42831  -0.41365  -0.40119  -0.38208  -0.34790
 Alpha  occ. eigenvalues --   -0.33873  -0.28291
 Alpha virt. eigenvalues --    0.02933   0.04843   0.07721   0.12607   0.13317
 Alpha virt. eigenvalues --    0.14514   0.15302   0.16455   0.17483   0.18562
 Alpha virt. eigenvalues --    0.19278   0.20641   0.21724   0.22245   0.22714

 Mulliken charges:
               1
     1  C   -0.223233
     2  C   -0.018735
     3  C   -0.206704
     4  C   -0.031253
     5  C   -0.061699
     6  C   -0.062620
     7  C    0.095753
     8  H    0.029743
     9  H    0.050428
    10  C   -0.057605
    11  H    0.062170
    12  H    0.078701
    13  C    0.071102
    14  O   -0.224340
    15  H    0.081350
    16  H    0.099684
    17  C    0.127690
    18  H    0.064235
    19  H    0.038962
    20  Cl  -0.102461
    21  C    0.051581
    22  H    0.045730
    23  H    0.035057
    24  H    0.045112
    25  H    0.005715
    26  H    0.005638
 Sum of Mulliken charges =  -0.00000

 Dipole moment (field-independent basis, Debye):
    X=             -3.0669    Y=             -1.3971    Z=              0.4624  Tot=              3.4017
 Quadrupole moment (field-independent basis, Debye-Ang):
   XX=            -98.8830   YY=            -80.9233   ZZ=            -77.0210
   XY=             -5.4572   XZ=              0.9947   YZ=              0.5644

 Normal termination of Gaussian 16 at Fri Dec 22 23:47:35 2023.
