 Gaussian 16, Revision C.01,
 Gaussian 16:  ES64L-G16RevC.01  3-Jul-2019

 -----------------------------------------------------------
 # wb97xd def2svp scrf=(iefpcm,solvent=toluene) freq=noraman
 -----------------------------------------------------------

 --------------------------
 imda-1_1_opt_dft_reopt.out
 --------------------------
 Symbolic Z-matrix:
 Charge =  0 Multiplicity = 1

                         Standard orientation:
 ---------------------------------------------------------------------
 Center     Atomic      Atomic             Coordinates (Angstroms)
 Number     Number       Type             X           Y           Z
 ---------------------------------------------------------------------
      1          6           0       -2.465080    0.318180   -0.221301
      2          6           0        0.990741    1.270779    1.117719
      3          6           0       -0.921770   -1.479140   -0.039661
      4          6           0        1.367720   -0.004561    1.098179
      5          6           0       -2.673440   -0.345540    0.937589
      6          6           0       -1.723850   -1.455190    1.047059
      7          6           0        0.224010   -2.406260   -0.317791
      8          1           0        0.459760   -2.976821    0.594839
      9          1           0       -0.077790   -3.154260   -1.071341
     10          6           0        1.484830   -1.719621   -0.855181
     11          1           0        2.257450   -2.458611   -1.115011
     12          1           0        1.248910   -1.198471   -1.800501
     13          6           0        2.162530   -0.666221    0.006749
     14          8           0        3.310620   -0.349651   -0.195801
     15          1           0        1.058120   -0.630631    1.940139
     16          1           0        0.417291    1.708589    1.935899
     17          6           0       -1.346050   -0.364680   -0.959691
     18          1           0       -1.687980   -0.754690   -1.936501
     19          1           0       -0.527420    0.341170   -1.184301
     20         17           0        1.287351    2.383839   -0.185101
     21          6           0       -3.165779    1.529390   -0.742811
     22          1           0       -2.457009    2.363000   -0.879401
     23          1           0       -3.956439    1.861630   -0.055531
     24          1           0       -3.625269    1.337020   -1.726141
     25          1           0       -1.658070   -2.136970    1.897749
     26          1           0       -3.424670   -0.091830    1.688039
 ---------------------------------------------------------------------

 SCF Done:  E(RwB97XD) =  -961.702758739     A.U. after   15 cycles

 The electronic state is 1-A.
 Alpha  occ. eigenvalues -- -101.68792 -19.25540 -10.40036 -10.36783 -10.32225
 Alpha  occ. eigenvalues --  -10.31257 -10.31231 -10.30186 -10.30080 -10.30049
 Alpha  occ. eigenvalues --  -10.29685 -10.29206 -10.29009  -9.59535  -7.34903
 Alpha  occ. eigenvalues --   -7.33980  -7.33911  -1.14496  -0.97845  -0.96150
 Alpha  occ. eigenvalues --   -0.89929  -0.86026  -0.83819  -0.79554  -0.77588
 Alpha  occ. eigenvalues --   -0.72959  -0.70512  -0.62718  -0.61631  -0.60762
 Alpha  occ. eigenvalues --   -0.59598  -0.57496  -0.55473  -0.54839  -0.53433
 Alpha  occ. eigenvalues --   -0.52543  -0.49932  -0.49800  -0.48950  -0.48601
 Alpha  occ. eigenvalues --   -0.47408  -0.45893  -0.45351  -0.44687  -0.43062
 Alpha  occ. eigenvalues --   -0.42832  -0.41364  -0.40117  -0.38205  -0.34788
 Alpha  occ. eigenvalues --   -0.33875  -0.28291
 Alpha virt. eigenvalues --    0.02907   0.04842   0.07752   0.12606   0.13318
 Alpha virt. eigenvalues --    0.14510   0.15303   0.16453   0.17480   0.18562
 Alpha virt. eigenvalues --    0.19276   0.20642   0.21731   0.22243   0.22717

 Mulliken charges:
               1
     1  C   -0.223216
     2  C   -0.018401
     3  C   -0.206722
     4  C   -0.031482
     5  C   -0.061705
     6  C   -0.062593
     7  C    0.095721
     8  H    0.029731
     9  H    0.050428
    10  C   -0.057906
    11  H    0.062312
    12  H    0.078751
    13  C    0.071134
    14  O   -0.224396
    15  H    0.081224
    16  H    0.099697
    17  C    0.127710
    18  H    0.064294
    19  H    0.038933
    20  Cl  -0.102323
    21  C    0.051602
    22  H    0.045770
    23  H    0.035059
    24  H    0.045029
    25  H    0.005711
    26  H    0.005636
 Sum of Mulliken charges =  -0.00000

 Dipole moment (field-independent basis, Debye):
    X=             -3.0613    Y=             -1.4006    Z=              0.4735  Tot=              3.3996
 Quadrupole moment (field-independent basis, Debye-Ang):
   XX=            -98.8729   YY=            -80.8981   ZZ=            -77.0248
   XY=             -5.4598   XZ=              1.0319   YZ=              0.5631

  Exact polarizability:     138.252     -15.968     147.152     -14.494     -10.758     126.668
 Approx polarizability:     131.927      -9.280     144.578     -16.347     -15.172     139.010

 ******    1 imaginary frequencies (negative Signs) ******

                      1                      2                      3
                      A                      A                      A
 Frequencies --    -27.2029                33.6487                62.9229
 Red. masses --      6.2897                 6.9999                 5.3487
 Frc consts  --      0.0027                 0.0047                 0.0125
 IR Inten    --      3.4376                 0.4141                 0.6211

                      4                      5                      6
                      A                      A                      A
 Frequencies --     89.0479               125.3161               162.9398
 Red. masses --      3.2246                10.1739                 1.1084
 Frc consts  --      0.0151                 0.0941                 0.0173
 IR Inten    --      2.6430                 1.0483                 0.0386

                      7                      8                      9
                      A                      A                      A
 Frequencies --    171.3025               195.6434               204.8677
 Red. masses --      2.7017                 3.5360                 2.9966
 Frc consts  --      0.0467                 0.0797                 0.0741
 IR Inten    --      0.8360                 6.4478                 0.3173

                     10                     11                     12
                      A                      A                      A
 Frequencies --    276.6583               307.1866               347.4432
 Red. masses --      2.4285                 3.4028                 2.7124
 Frc consts  --      0.1095                 0.1892                 0.1929
 IR Inten    --      0.8037                 3.2077                 6.0421

                     13                     14                     15
                      A                      A                      A
 Frequencies --    386.7454               404.2114               434.5360
 Red. masses --      1.9938                 2.3482                 3.8877
 Frc consts  --      0.1757                 0.2260                 0.4325
 IR Inten    --     14.2212                 7.3177                 6.2290

                     16                     17                     18
                      A                      A                      A
 Frequencies --    538.0939               544.7253               554.0056
 Red. masses --      2.5198                 2.4850                 3.4756
 Frc consts  --      0.4299                 0.4344                 0.6285
 IR Inten    --      3.5564                14.3553                 4.3914

                     19                     20                     21
                      A                      A                      A
 Frequencies --    577.4410               667.3624               704.8554
 Red. masses --      3.0119                 3.6246                 1.8328
 Frc consts  --      0.5917                 0.9511                 0.5365
 IR Inten    --      7.5960                 1.3224                19.7697

                     22                     23                     24
                      A                      A                      A
 Frequencies --    711.7382               729.3874               811.4478
 Red. masses --      2.8696                 4.6661                 1.7930
 Frc consts  --      0.8565                 1.4626                 0.6956
 IR Inten    --     27.6371                42.9924                 1.2496

                     25                     26                     27
                      A                      A                      A
 Frequencies --    854.7490               884.8077               895.6093
 Red. masses --      2.6869                 2.4900                 1.9619
 Frc consts  --      1.1566                 1.1486                 0.9272
 IR Inten    --     36.4663                 4.7984                 5.0850

                     28                     29                     30
                      A                      A                      A
 Frequencies --    912.5188               923.2919               943.6026
 Red. masses --      1.4371                 2.8759                 1.8189
 Frc consts  --      0.7051                 1.4444                 0.9542
 IR Inten    --     28.1490                 4.1215                 5.2447

                     31                     32                     33
                      A                      A                      A
 Frequencies --    956.4079               960.6256               991.7395
 Red. masses --      1.8421                 1.3579                 1.5675
 Frc consts  --      0.9928                 0.7383                 0.9083
 IR Inten    --      8.9056                 7.6790                 0.8012

                     34                     35                     36
                      A                      A                      A
 Frequencies --   1033.8171              1043.7713              1067.4716
 Red. masses --      1.4220                 1.4051                 2.1316
 Frc consts  --      0.8954                 0.9019                 1.4311
 IR Inten    --     12.0070                 4.5037                 4.3440

                     37                     38                     39
                      A                      A                      A
 Frequencies --   1129.9090              1161.0442              1170.5730
 Red. masses --      1.3102                 1.2514                 1.5689
 Frc consts  --      0.9855                 0.9939                 1.2666
 IR Inten    --     12.4233                 7.5926                14.6302

                     40                     41                     42
                      A                      A                      A
 Frequencies --   1182.0057              1202.4422              1239.2987
 Red. masses --      1.9391                 1.1948                 2.1231
 Frc consts  --      1.5962                 1.0178                 1.9212
 IR Inten    --     71.4749                 6.3780                 2.6234

                     43                     44                     45
                      A                      A                      A
 Frequencies --   1254.3339              1261.5865              1348.0761
 Red. masses --      1.5252                 1.2897                 1.5348
 Frc consts  --      1.4138                 1.2094                 1.6433
 IR Inten    --      0.8835                 8.5548                 9.3300

                     46                     47                     48
                      A                      A                      A
 Frequencies --   1356.7823              1360.6976              1381.6401
 Red. masses --      1.8280                 1.8610                 1.7657
 Frc consts  --      1.9826                 2.0301                 1.9859
 IR Inten    --     10.7912                50.5372                 5.8340

                     49                     50                     51
                      A                      A                      A
 Frequencies --   1384.5745              1399.1816              1412.2217
 Red. masses --      1.8120                 1.4730                 1.7360
 Frc consts  --      2.0466                 1.6991                 2.0399
 IR Inten    --      2.2237                18.4084                 1.4443

                     52                     53                     54
                      A                      A                      A
 Frequencies --   1426.3686              1455.4318              1460.2318
 Red. masses --      1.0904                 1.0420                 1.0913
 Frc consts  --      1.3071                 1.3004                 1.3710
 IR Inten    --      9.8362                 9.7031                 8.3805

                     55                     56                     57
                      A                      A                      A
 Frequencies --   1465.1466              1666.2546              1719.5034
 Red. masses --      1.0826                 8.2668                 6.6391
 Frc consts  --      1.3693                13.5229                11.5655
 IR Inten    --     10.3520                13.1903                11.6683

                     58                     59                     60
                      A                      A                      A
 Frequencies --   1724.1009              1849.0302              3038.3506
 Red. masses --      8.0177                12.5481                 1.0389
 Frc consts  --     14.0419                25.2765                 5.6507
 IR Inten    --     69.4666               258.6564                39.1107

                     61                     62                     63
                      A                      A                      A
 Frequencies --   3046.6200              3049.6566              3059.5059
 Red. masses --      1.0649                 1.0649                 1.0679
 Frc consts  --      5.8238                 5.8355                 5.8896
 IR Inten    --     30.4343                11.2756                 7.5847

                     64                     65                     66
                      A                      A                      A
 Frequencies --   3103.6036              3106.3998              3117.4449
 Red. masses --      1.0987                 1.1013                 1.1022
 Frc consts  --      6.2355                 6.2614                 6.3109
 IR Inten    --      1.0342                16.0278                15.0632

                     67                     68                     69
                      A                      A                      A
 Frequencies --   3131.8611              3157.4598              3206.1524
 Red. masses --      1.0987                 1.1036                 1.0874
 Frc consts  --      6.3492                 6.4822                 6.5858
 IR Inten    --     10.5441                15.0639                 2.3875

                     70                     71                     72
                      A                      A                      A
 Frequencies --   3214.3221              3228.7674              3250.0531
 Red. masses --      1.0935                 1.1006                 1.0987
 Frc consts  --      6.6568                 6.7599                 6.8379
 IR Inten    --     21.0178                13.7438                 2.0264

 - Thermochemistry -
 -------------------
 Temperature   298.150 Kelvin.  Pressure   1.00000 Atm.
 Atom     1 has atomic number  6 and mass  12.00000

 Molecular mass:   196.06549 amu.
 Principal axes and moments of inertia in atomic units:
                           1         2         3
     Eigenvalues --  2037.381173112.446174347.72212
           X            0.99693  -0.07822   0.00353
           Y            0.07820   0.99693   0.00388
           Z           -0.00382  -0.00359   0.99999
 This molecule is an asymmetric top.
 Rotational symmetry number  1.
 Warning -- assumption of classical behavior for rotation
           may cause significant error
 Rotational temperatures (Kelvin)      0.04251     0.02783     0.01992
 Rotational constants (GHZ):           0.88581     0.57985     0.41510
    1 imaginary frequencies ignored.
 Zero-point vibrational energy     557642.7 (Joules/Mol)
                                  133.27979 (Kcal/Mol)
 Warning -- explicit consideration of  18 degrees of freedom as
           vibrations may cause significant error
 Vibrational temperatures:     48.41    90.53   128.12   180.30   234.43
          (Kelvin)            246.47   281.49   294.76   398.05   441.97
                              499.89   556.44   581.57   625.20   774.20
                              783.74   797.09   830.81   960.19  1014.13
                             1024.03  1049.43  1167.49  1229.79  1273.04
                             1288.58  1312.91  1328.41  1357.63  1376.06
                             1382.13  1426.89  1487.43  1501.75  1535.85
                             1625.69  1670.48  1684.19  1700.64  1730.05
                             1783.07  1804.71  1815.14  1939.58  1952.11
                             1957.74  1987.87  1992.09  2013.11  2031.87
                             2052.23  2094.04  2100.95  2108.02  2397.37
                             2473.98  2480.60  2660.34  4371.51  4383.41
                             4387.78  4401.95  4465.39  4469.42  4485.31
                             4506.05  4542.88  4612.94  4624.69  4645.48
                             4676.10

 Zero-point correction=                           0.212395 (Hartree/Particle)
 Thermal correction to Energy=                    0.224864
 Thermal correction to Enthalpy=                  0.225808
 Thermal correction to Gibbs Free Energy=         0.172743
 Sum of electronic and zero-point Energies=           -961.490364
 Sum of electronic and thermal Energies=              -961.477895
 Sum of electronic and thermal Enthalpies=            -961.476951
 Sum of electronic and thermal Free Energies=         -961.530016

                     E (Thermal)             CV                S
                      KCal/Mol        Cal/Mol-Kelvin    Cal/Mol-Kelvin
 Total                  141.104             47.158            111.685
 Electronic               0.000              0.000              0.000
 Translational            0.889              2.981             41.725
 Rotational               0.889              2.981             31.689
 Vibrational            139.327             41.196             38.271
 Vibration     1          0.594              1.983              5.602
 Vibration     2          0.597              1.972              4.363
 Vibration     3          0.602              1.957              3.681
 Vibration     4          0.610              1.928              3.017
 Vibration     5          0.623              1.888              2.515
 Vibration     6          0.626              1.878              2.421
 Vibration     7          0.636              1.846              2.174
 Vibration     8          0.640              1.833              2.089
 Vibration     9          0.678              1.717              1.554
 Vibration    10          0.697              1.660              1.377
 Vibration    11          0.725              1.580              1.178
 Vibration    12          0.755              1.498              1.013
 Vibration    13          0.769              1.461              0.947
 Vibration    14          0.795              1.395              0.844
 Vibration    15          0.893              1.166              0.569
 Vibration    16          0.900              1.151              0.555
 Vibration    17          0.909              1.131              0.536
 Vibration    18          0.934              1.080              0.490

 Normal termination of Gaussian 16 at Sat Dec 30 20:57:21 2023.
