 Gaussian 16, Revision C.01,
 Gaussian 16:  ES64L-G16RevC.01  3-Jul-2019

 -----------------------------------------------------------
 # wb97xd def2svp scrf=(iefpcm,solvent=toluene) freq=noraman
 -----------------------------------------------------------

 -------------------------
 imda-1_1_opt_hf_reopt.out
 -------------------------
 Symbolic Z-matrix:
 Charge =  0 Multiplicity = 1

                         Standard orientation:
 ---------------------------------------------------------------------
 Center     Atomic      Atomic             Coordinates (Angstroms)
 Number     Number       Type             X           Y           Z
 ---------------------------------------------------------------------
      1          6           0       -2.467959    0.315988   -0.219461
      2          6           0        0.990274    1.271957    1.116319
      3          6           0       -0.919905   -1.477457   -0.040361
      4          6           0        1.368010   -0.003144    1.098529
      5          6           0       -2.672961   -0.348451    0.939619
      6          6           0       -1.720645   -1.455934    1.047369
      7          6           0        0.225462   -2.403861   -0.322181
      8          1           0        0.461150   -2.978511    0.587879
      9          1           0       -0.076950   -3.148260   -1.079041
     10          6           0        1.486384   -1.715434   -0.857221
     11          1           0        2.258932   -2.453317   -1.120291
     12          1           0        1.249916   -1.190494   -1.800351
     13          6           0        2.164348   -0.665397    0.008439
     14          8           0        3.313989   -0.351710   -0.189701
     15          1           0        1.058078   -0.628673    1.940759
     16          1           0        0.416025    1.710569    1.933519
     17          6           0       -1.347791   -0.363496   -0.959301
     18          1           0       -1.688483   -0.753275   -1.936601
     19          1           0       -0.531109    0.344992   -1.182871
     20         17           0        1.287387    2.383396   -0.187871
     21          6           0       -3.172805    1.525260   -0.739871
     22          1           0       -2.466623    2.360838   -0.877891
     23          1           0       -3.963154    1.855433   -0.051241
     24          1           0       -3.633526    1.331462   -1.722351
     25          1           0       -1.652527   -2.138305    1.897409
     26          1           0       -3.423690   -0.096699    1.691229
 ---------------------------------------------------------------------

 SCF Done:  E(RwB97XD) =  -961.702758287     A.U. after   15 cycles

 The electronic state is 1-A.
 Alpha  occ. eigenvalues -- -101.68792 -19.25543 -10.40038 -10.36777 -10.32225
 Alpha  occ. eigenvalues --  -10.31259 -10.31232 -10.30186 -10.30080 -10.30050
 Alpha  occ. eigenvalues --  -10.29686 -10.29207 -10.29010  -9.59535  -7.34902
 Alpha  occ. eigenvalues --   -7.33980  -7.33911  -1.14499  -0.97844  -0.96150
 Alpha  occ. eigenvalues --   -0.89929  -0.86025  -0.83820  -0.79556  -0.77588
 Alpha  occ. eigenvalues --   -0.72960  -0.70511  -0.62719  -0.61631  -0.60762
 Alpha  occ. eigenvalues --   -0.59596  -0.57495  -0.55478  -0.54845  -0.53431
 Alpha  occ. eigenvalues --   -0.52542  -0.49932  -0.49800  -0.48957  -0.48601
 Alpha  occ. eigenvalues --   -0.47408  -0.45887  -0.45352  -0.44687  -0.43064
 Alpha  occ. eigenvalues --   -0.42832  -0.41364  -0.40118  -0.38208  -0.34791
 Alpha  occ. eigenvalues --   -0.33873  -0.28291
 Alpha virt. eigenvalues --    0.02930   0.04843   0.07725   0.12608   0.13316
 Alpha virt. eigenvalues --    0.14512   0.15302   0.16456   0.17480   0.18562
 Alpha virt. eigenvalues --    0.19276   0.20640   0.21728   0.22242   0.22713

 Mulliken charges:
               1
     1  C   -0.223246
     2  C   -0.018742
     3  C   -0.206765
     4  C   -0.031266
     5  C   -0.061692
     6  C   -0.062596
     7  C    0.095727
     8  H    0.029740
     9  H    0.050431
    10  C   -0.057582
    11  H    0.062173
    12  H    0.078697
    13  C    0.071105
    14  O   -0.224352
    15  H    0.081327
    16  H    0.099689
    17  C    0.127743
    18  H    0.064222
    19  H    0.039000
    20  Cl  -0.102469
    21  C    0.051566
    22  H    0.045820
    23  H    0.035067
    24  H    0.045049
    25  H    0.005716
    26  H    0.005638
 Sum of Mulliken charges =  -0.00000

 Dipole moment (field-independent basis, Debye):
    X=             -3.0689    Y=             -1.3946    Z=              0.4625  Tot=              3.4025
 Quadrupole moment (field-independent basis, Debye-Ang):
   XX=            -98.8926   YY=            -80.9157   ZZ=            -77.0213
   XY=             -5.4450   XZ=              0.9991   YZ=              0.5658

  Exact polarizability:     138.373     -15.978     147.008     -14.441     -10.768     126.698
 Approx polarizability:     131.993      -9.307     144.481     -16.263     -15.206     139.033

 ******    1 imaginary frequencies (negative Signs) ******

                      1                      2                      3
                      A                      A                      A
 Frequencies --    -27.5033                34.9914                62.9126
 Red. masses --      6.3052                 6.9829                 5.3304
 Frc consts  --      0.0028                 0.0050                 0.0124
 IR Inten    --      3.3892                 0.4214                 0.6130

                      4                      5                      6
                      A                      A                      A
 Frequencies --     89.5930               125.1366               162.8236
 Red. masses --      3.2236                10.2161                 1.1088
 Frc consts  --      0.0152                 0.0943                 0.0173
 IR Inten    --      2.6543                 1.0499                 0.0371

                      7                      8                      9
                      A                      A                      A
 Frequencies --    170.8444               195.8283               204.9809
 Red. masses --      2.7045                 3.5370                 2.9963
 Frc consts  --      0.0465                 0.0799                 0.0742
 IR Inten    --      0.8286                 6.4992                 0.2842

                     10                     11                     12
                      A                      A                      A
 Frequencies --    276.6099               307.1256               347.6300
 Red. masses --      2.4295                 3.4015                 2.7174
 Frc consts  --      0.1095                 0.1890                 0.1935
 IR Inten    --      0.8059                 3.2016                 6.0004

                     13                     14                     15
                      A                      A                      A
 Frequencies --    386.9577               404.1671               434.5742
 Red. masses --      2.0048                 2.3281                 3.8700
 Frc consts  --      0.1769                 0.2241                 0.4306
 IR Inten    --     14.0699                 7.4068                 6.2909

                     16                     17                     18
                      A                      A                      A
 Frequencies --    538.0824               544.6432               554.1783
 Red. masses --      2.5210                 2.4932                 3.4724
 Frc consts  --      0.4300                 0.4357                 0.6283
 IR Inten    --      3.6155                14.3277                 4.4462

                     19                     20                     21
                      A                      A                      A
 Frequencies --    577.1290               667.5630               704.6841
 Red. masses --      3.0001                 3.6200                 1.8035
 Frc consts  --      0.5888                 0.9505                 0.5277
 IR Inten    --      7.4540                 1.3406                21.3559

                     22                     23                     24
                      A                      A                      A
 Frequencies --    711.6249               729.2987               811.5419
 Red. masses --      2.9517                 4.6720                 1.7943
 Frc consts  --      0.8807                 1.4641                 0.6962
 IR Inten    --     26.1219                42.8185                 1.2562

                     25                     26                     27
                      A                      A                      A
 Frequencies --    854.5538               884.7544               895.6019
 Red. masses --      2.6869                 2.4921                 1.9599
 Frc consts  --      1.1561                 1.1494                 0.9262
 IR Inten    --     36.5513                 4.7714                 5.0903

                     28                     29                     30
                      A                      A                      A
 Frequencies --    912.6171               923.1925               943.6234
 Red. masses --      1.4342                 2.8823                 1.8200
 Frc consts  --      0.7038                 1.4473                 0.9548
 IR Inten    --     28.2094                 4.0310                 5.2458

                     31                     32                     33
                      A                      A                      A
 Frequencies --    956.4345               960.3109               991.7225
 Red. masses --      1.8231                 1.3680                 1.5678
 Frc consts  --      0.9826                 0.7433                 0.9085
 IR Inten    --      8.3542                 8.1672                 0.8021

                     34                     35                     36
                      A                      A                      A
 Frequencies --   1033.8424              1043.7912              1067.3000
 Red. masses --      1.4228                 1.4047                 2.1306
 Frc consts  --      0.8960                 0.9017                 1.4300
 IR Inten    --     12.0157                 4.4887                 4.3131

                     37                     38                     39
                      A                      A                      A
 Frequencies --   1129.9715              1160.9057              1170.5179
 Red. masses --      1.3086                 1.2506                 1.5588
 Frc consts  --      0.9845                 0.9930                 1.2583
 IR Inten    --     12.1955                 7.2219                14.2500

                     40                     41                     42
                      A                      A                      A
 Frequencies --   1181.9088              1202.2638              1239.2806
 Red. masses --      1.9579                 1.1956                 2.1228
 Frc consts  --      1.6114                 1.0182                 1.9209
 IR Inten    --     72.1445                 6.3256                 2.5861

                     43                     44                     45
                      A                      A                      A
 Frequencies --   1254.3287              1261.6100              1347.9889
 Red. masses --      1.5246                 1.2904                 1.5337
 Frc consts  --      1.4133                 1.2102                 1.6420
 IR Inten    --      0.8793                 8.6270                 9.4523

                     46                     47                     48
                      A                      A                      A
 Frequencies --   1356.6963              1360.6672              1381.5853
 Red. masses --      1.8282                 1.8639                 1.7709
 Frc consts  --      1.9827                 2.0332                 1.9916
 IR Inten    --     10.7565                50.4152                 5.7717

                     49                     50                     51
                      A                      A                      A
 Frequencies --   1384.7155              1399.3462              1412.2824
 Red. masses --      1.8198                 1.4661                 1.7327
 Frc consts  --      2.0559                 1.6915                 2.0362
 IR Inten    --      2.1962                18.5653                 1.4297

                     52                     53                     54
                      A                      A                      A
 Frequencies --   1426.3535              1455.4725              1460.2521
 Red. masses --      1.0902                 1.0419                 1.0915
 Frc consts  --      1.3069                 1.3005                 1.3713
 IR Inten    --      9.9420                 9.7344                 8.2870

                     55                     56                     57
                      A                      A                      A
 Frequencies --   1465.1190              1666.3504              1719.5977
 Red. masses --      1.0827                 8.2650                 6.6396
 Frc consts  --      1.3693                13.5216                11.5677
 IR Inten    --     10.3567                13.2305                11.6625

                     58                     59                     60
                      A                      A                      A
 Frequencies --   1724.2319              1849.0992              3038.3413
 Red. masses --      8.0195                12.5476                 1.0389
 Frc consts  --     14.0471                25.2773                 5.6505
 IR Inten    --     68.8226               259.2367                39.1678

                     61                     62                     63
                      A                      A                      A
 Frequencies --   3046.6947              3049.8354              3059.0899
 Red. masses --      1.0649                 1.0649                 1.0680
 Frc consts  --      5.8240                 5.8359                 5.8883
 IR Inten    --     30.5563                10.9601                 7.6645

                     64                     65                     66
                      A                      A                      A
 Frequencies --   3103.5410              3106.5579              3117.4026
 Red. masses --      1.0988                 1.1013                 1.1021
 Frc consts  --      6.2356                 6.2623                 6.3107
 IR Inten    --      1.0309                16.0354                15.1206

                     67                     68                     69
                      A                      A                      A
 Frequencies --   3131.8760              3157.4366              3206.2378
 Red. masses --      1.0986                 1.1036                 1.0874
 Frc consts  --      6.3490                 6.4820                 6.5861
 IR Inten    --     10.6075                15.0789                 2.4248

                     70                     71                     72
                      A                      A                      A
 Frequencies --   3214.3705              3228.8333              3250.0053
 Red. masses --      1.0936                 1.1006                 1.0988
 Frc consts  --      6.6571                 6.7601                 6.8379
 IR Inten    --     20.9993                13.7321                 2.0180

 - Thermochemistry -
 -------------------
 Temperature   298.150 Kelvin.  Pressure   1.00000 Atm.
 Atom     1 has atomic number  6 and mass  12.00000

 Molecular mass:   196.06549 amu.
 Principal axes and moments of inertia in atomic units:
                           1         2         3
     Eigenvalues --  2035.271983116.874664349.81211
           X            0.99697  -0.07769   0.00349
           Y            0.07767   0.99697   0.00404
           Z           -0.00379  -0.00376   0.99999
 This molecule is an asymmetric top.
 Rotational symmetry number  1.
 Warning -- assumption of classical behavior for rotation
           may cause significant error
 Rotational temperatures (Kelvin)      0.04256     0.02779     0.01991
 Rotational constants (GHZ):           0.88673     0.57902     0.41490
    1 imaginary frequencies ignored.
 Zero-point vibrational energy     557647.8 (Joules/Mol)
                                  133.28102 (Kcal/Mol)
 Warning -- explicit consideration of  18 degrees of freedom as
           vibrations may cause significant error
 Vibrational temperatures:     50.34    90.52   128.90   180.04   234.27
          (Kelvin)            245.81   281.75   294.92   397.98   441.89
                              500.16   556.75   581.51   625.26   774.18
                              783.62   797.34   830.36   960.47  1013.88
                             1023.87  1049.30  1167.63  1229.51  1272.96
                             1288.57  1313.05  1328.27  1357.66  1376.10
                             1381.67  1426.87  1487.47  1501.78  1535.61
                             1625.78  1670.28  1684.11  1700.50  1729.79
                             1783.05  1804.70  1815.18  1939.46  1951.98
                             1957.70  1987.79  1992.30  2013.35  2031.96
                             2052.20  2094.10  2100.98  2107.98  2397.51
                             2474.12  2480.79  2660.44  4371.50  4383.51
                             4388.03  4401.35  4465.30  4469.64  4485.25
                             4506.07  4542.85  4613.06  4624.76  4645.57
                             4676.03

 Zero-point correction=                           0.212397 (Hartree/Particle)
 Thermal correction to Energy=                    0.224863
 Thermal correction to Enthalpy=                  0.225807
 Thermal correction to Gibbs Free Energy=         0.172780
 Sum of electronic and zero-point Energies=           -961.490361
 Sum of electronic and thermal Energies=              -961.477896
 Sum of electronic and thermal Enthalpies=            -961.476952
 Sum of electronic and thermal Free Energies=         -961.529978

                     E (Thermal)             CV                S
                      KCal/Mol        Cal/Mol-Kelvin    Cal/Mol-Kelvin
 Total                  141.103             47.158            111.603
 Electronic               0.000              0.000              0.000
 Translational            0.889              2.981             41.725
 Rotational               0.889              2.981             31.690
 Vibrational            139.326             41.197             38.188
 Vibration     1          0.594              1.982              5.524
 Vibration     2          0.597              1.972              4.364
 Vibration     3          0.602              1.957              3.669
 Vibration     4          0.610              1.928              3.019
 Vibration     5          0.623              1.888              2.517
 Vibration     6          0.626              1.878              2.426
 Vibration     7          0.636              1.846              2.172
 Vibration     8          0.640              1.833              2.088
 Vibration     9          0.678              1.717              1.555
 Vibration    10          0.697              1.660              1.378
 Vibration    11          0.725              1.580              1.177
 Vibration    12          0.755              1.498              1.012
 Vibration    13          0.769              1.461              0.947
 Vibration    14          0.795              1.395              0.844
 Vibration    15          0.893              1.166              0.569
 Vibration    16          0.900              1.151              0.555
 Vibration    17          0.910              1.131              0.536
 Vibration    18          0.934              1.081              0.491

 Normal termination of Gaussian 16 at Sat Dec 30 20:57:29 2023.
