 Gaussian 16, Revision C.01,
 Gaussian 16:  ES64L-G16RevC.01  3-Jul-2019

 ----------------------------------------------------------------------
 # wb97xd def2svp scrf=(iefpcm,solvent=toluene) opt=(calcfc,ts,noeigen,
 maxcycles=50,maxstep=10)
 ----------------------------------------------------------------------

 -----------------------
 3a_exo_ts_26_reopt2.out
 -----------------------
 Symbolic Z-matrix:
 Charge =  0 Multiplicity = 1

 SCF Done:  E(RwB97XD) =  -961.692604425     A.U. after   14 cycles

  Exact polarizability:       0.000       0.000       0.000       0.000       0.000       0.000
 Approx polarizability:     141.746     -16.863     138.559      -3.233     -21.096     139.425

 SCF Done:  E(RwB97XD) =  -961.698877085     A.U. after   13 cycles
 SCF Done:  E(RwB97XD) =  -961.702038746     A.U. after   14 cycles
 SCF Done:  E(RwB97XD) =  -961.703584792     A.U. after   13 cycles
 SCF Done:  E(RwB97XD) =  -961.703413591     A.U. after   12 cycles
 SCF Done:  E(RwB97XD) =  -961.703354147     A.U. after   12 cycles
 SCF Done:  E(RwB97XD) =  -961.703076259     A.U. after   12 cycles
 SCF Done:  E(RwB97XD) =  -961.702572086     A.U. after   13 cycles
 SCF Done:  E(RwB97XD) =  -961.702830079     A.U. after   14 cycles
 SCF Done:  E(RwB97XD) =  -961.703412024     A.U. after   15 cycles
 SCF Done:  E(RwB97XD) =  -961.702753365     A.U. after   10 cycles
 SCF Done:  E(RwB97XD) =  -961.702760469     A.U. after   11 cycles
 SCF Done:  E(RwB97XD) =  -961.702757048     A.U. after   12 cycles
 SCF Done:  E(RwB97XD) =  -961.702757949     A.U. after    9 cycles
 SCF Done:  E(RwB97XD) =  -961.702759890     A.U. after   11 cycles
 SCF Done:  E(RwB97XD) =  -961.702758235     A.U. after   11 cycles
 SCF Done:  E(RwB97XD) =  -961.702759494     A.U. after   10 cycles
 SCF Done:  E(RwB97XD) =  -961.702759588     A.U. after   10 cycles
 SCF Done:  E(RwB97XD) =  -961.702760254     A.U. after    9 cycles
 SCF Done:  E(RwB97XD) =  -961.702758739     A.U. after   10 cycles
 Optimization completed.
    -- Stationary point found.

                         Standard orientation:
 ---------------------------------------------------------------------
 Center     Atomic      Atomic             Coordinates (Angstroms)
 Number     Number       Type             X           Y           Z
 ---------------------------------------------------------------------
      1          6           0       -2.465083    0.318180   -0.221300
      2          6           0        0.990744    1.270782    1.117715
      3          6           0       -0.921771   -1.479142   -0.039655
      4          6           0        1.367718   -0.004562    1.098181
      5          6           0       -2.673436   -0.345544    0.937595
      6          6           0       -1.723850   -1.455186    1.047057
      7          6           0        0.224012   -2.406258   -0.317788
      8          1           0        0.459758   -2.976820    0.594836
      9          1           0       -0.077786   -3.154264   -1.071345
     10          6           0        1.484834   -1.719619   -0.855182
     11          1           0        2.257446   -2.458611   -1.115009
     12          1           0        1.248909   -1.198468   -1.800498
     13          6           0        2.162529   -0.666221    0.006747
     14          8           0        3.310621   -0.349648   -0.195799
     15          1           0        1.058123   -0.630629    1.940138
     16          1           0        0.417286    1.708588    1.935899
     17          6           0       -1.346046   -0.364680   -0.959693
     18          1           0       -1.687983   -0.754689   -1.936502
     19          1           0       -0.527419    0.341168   -1.184304
     20         17           0        1.287350    2.383837   -0.185104
     21          6           0       -3.165782    1.529387   -0.742806
     22          1           0       -2.457011    2.363003   -0.879403
     23          1           0       -3.956437    1.861627   -0.055526
     24          1           0       -3.625269    1.337022   -1.726143
     25          1           0       -1.658072   -2.136969    1.897753
     26          1           0       -3.424669   -0.091830    1.688040
 ---------------------------------------------------------------------

 The electronic state is 1-A.
 Alpha  occ. eigenvalues -- -101.68792 -19.25540 -10.40036 -10.36783 -10.32225
 Alpha  occ. eigenvalues --  -10.31257 -10.31231 -10.30186 -10.30080 -10.30049
 Alpha  occ. eigenvalues --  -10.29685 -10.29206 -10.29009  -9.59535  -7.34903
 Alpha  occ. eigenvalues --   -7.33980  -7.33911  -1.14496  -0.97845  -0.96150
 Alpha  occ. eigenvalues --   -0.89929  -0.86026  -0.83819  -0.79554  -0.77588
 Alpha  occ. eigenvalues --   -0.72959  -0.70512  -0.62718  -0.61631  -0.60762
 Alpha  occ. eigenvalues --   -0.59598  -0.57496  -0.55473  -0.54839  -0.53433
 Alpha  occ. eigenvalues --   -0.52543  -0.49932  -0.49800  -0.48950  -0.48601
 Alpha  occ. eigenvalues --   -0.47408  -0.45893  -0.45351  -0.44687  -0.43062
 Alpha  occ. eigenvalues --   -0.42832  -0.41364  -0.40117  -0.38206  -0.34788
 Alpha  occ. eigenvalues --   -0.33875  -0.28291
 Alpha virt. eigenvalues --    0.02907   0.04842   0.07752   0.12606   0.13318
 Alpha virt. eigenvalues --    0.14511   0.15303   0.16453   0.17480   0.18562
 Alpha virt. eigenvalues --    0.19276   0.20642   0.21731   0.22243   0.22717

 Mulliken charges:
               1
     1  C   -0.223217
     2  C   -0.018402
     3  C   -0.206715
     4  C   -0.031481
     5  C   -0.061703
     6  C   -0.062594
     7  C    0.095714
     8  H    0.029730
     9  H    0.050430
    10  C   -0.057898
    11  H    0.062312
    12  H    0.078751
    13  C    0.071132
    14  O   -0.224398
    15  H    0.081222
    16  H    0.099698
    17  C    0.127705
    18  H    0.064294
    19  H    0.038933
    20  Cl  -0.102320
    21  C    0.051599
    22  H    0.045771
    23  H    0.035059
    24  H    0.045030
    25  H    0.005713
    26  H    0.005636
 Sum of Mulliken charges =  -0.00000

 Dipole moment (field-independent basis, Debye):
    X=             -3.0613    Y=             -1.4006    Z=              0.4734  Tot=              3.3997
 Quadrupole moment (field-independent basis, Debye-Ang):
   XX=            -98.8729   YY=            -80.8980   ZZ=            -77.0248
   XY=             -5.4598   XZ=              1.0319   YZ=              0.5631

 Normal termination of Gaussian 16 at Thu Dec 21 20:21:02 2023.
