 Gaussian 16, Revision C.01,
 Gaussian 16:  ES64L-G16RevC.01  3-Jul-2019

 -----------------------------------------------------------
 # wb97xd def2svp scrf=(iefpcm,solvent=toluene) freq=noraman
 -----------------------------------------------------------

 ----------------------
 imda-1_1_opt_hf_re.out
 ----------------------
 Symbolic Z-matrix:
 Charge =  0 Multiplicity = 1

                         Standard orientation:
 ---------------------------------------------------------------------
 Center     Atomic      Atomic             Coordinates (Angstroms)
 Number     Number       Type             X           Y           Z
 ---------------------------------------------------------------------
      1          6           0       -2.467250    0.315747   -0.219559
      2          6           0        0.989539    1.271859    1.116621
      3          6           0       -0.919509   -1.477992   -0.040499
      4          6           0        1.368000   -0.003020    1.098651
      5          6           0       -2.672750   -0.349023    0.939241
      6          6           0       -1.720559   -1.456612    1.047011
      7          6           0        0.226312   -2.404011   -0.321789
      8          1           0        0.462222   -2.978081    0.588581
      9          1           0       -0.075658   -3.148991   -1.078259
     10          6           0        1.486871   -1.715190   -0.857099
     11          1           0        2.259722   -2.452760   -1.120139
     12          1           0        1.250021   -1.190551   -1.800299
     13          6           0        2.164461   -0.664690    0.008291
     14          8           0        3.313840   -0.350299   -0.190179
     15          1           0        1.058420   -0.628861    1.940791
     16          1           0        0.415099    1.710069    1.933901
     17          6           0       -1.347060   -0.363792   -0.959319
     18          1           0       -1.687959   -0.753502   -1.936569
     19          1           0       -0.530240    0.344498   -1.182999
     20         17           0        1.285839    2.383559   -0.187539
     21          6           0       -3.172061    1.525017   -0.740039
     22          1           0       -2.465441    2.359787   -0.880519
     23          1           0       -3.960751    1.856696   -0.050239
     24          1           0       -3.634961    1.330386   -1.721339
     25          1           0       -1.652689   -2.139122    1.896961
     26          1           0       -3.423730   -0.097433    1.690651
 ---------------------------------------------------------------------

 SCF Done:  E(RwB97XD) =  -961.702758296     A.U. after   15 cycles

 The electronic state is 1-A.
 Alpha  occ. eigenvalues -- -101.68792 -19.25543 -10.40038 -10.36777 -10.32225
 Alpha  occ. eigenvalues --  -10.31259 -10.31231 -10.30186 -10.30080 -10.30049
 Alpha  occ. eigenvalues --  -10.29685 -10.29206 -10.29010  -9.59535  -7.34903
 Alpha  occ. eigenvalues --   -7.33980  -7.33911  -1.14499  -0.97844  -0.96150
 Alpha  occ. eigenvalues --   -0.89930  -0.86025  -0.83820  -0.79555  -0.77588
 Alpha  occ. eigenvalues --   -0.72960  -0.70511  -0.62719  -0.61631  -0.60762
 Alpha  occ. eigenvalues --   -0.59596  -0.57495  -0.55478  -0.54845  -0.53432
 Alpha  occ. eigenvalues --   -0.52542  -0.49932  -0.49800  -0.48956  -0.48601
 Alpha  occ. eigenvalues --   -0.47408  -0.45887  -0.45352  -0.44687  -0.43064
 Alpha  occ. eigenvalues --   -0.42831  -0.41365  -0.40118  -0.38208  -0.34790
 Alpha  occ. eigenvalues --   -0.33873  -0.28291
 Alpha virt. eigenvalues --    0.02930   0.04843   0.07726   0.12607   0.13317
 Alpha virt. eigenvalues --    0.14513   0.15302   0.16455   0.17482   0.18562
 Alpha virt. eigenvalues --    0.19277   0.20641   0.21724   0.22245   0.22715

 Mulliken charges:
               1
     1  C   -0.223244
     2  C   -0.018711
     3  C   -0.206732
     4  C   -0.031285
     5  C   -0.061687
     6  C   -0.062614
     7  C    0.095739
     8  H    0.029747
     9  H    0.050432
    10  C   -0.057627
    11  H    0.062177
    12  H    0.078703
    13  C    0.071105
    14  O   -0.224339
    15  H    0.081328
    16  H    0.099694
    17  C    0.127713
    18  H    0.064234
    19  H    0.038977
    20  Cl  -0.102452
    21  C    0.051582
    22  H    0.045740
    23  H    0.035056
    24  H    0.045114
    25  H    0.005713
    26  H    0.005637
 Sum of Mulliken charges =  -0.00000

 Dipole moment (field-independent basis, Debye):
    X=             -3.0677    Y=             -1.3967    Z=              0.4633  Tot=              3.4024
 Quadrupole moment (field-independent basis, Debye-Ang):
   XX=            -98.8843   YY=            -80.9180   ZZ=            -77.0222
   XY=             -5.4518   XZ=              1.0009   YZ=              0.5644

  Exact polarizability:     138.375     -15.984     147.013     -14.440     -10.774     126.688
 Approx polarizability:     131.999      -9.312     144.487     -16.265     -15.211     139.025

 ******    1 imaginary frequencies (negative Signs) ******

                      1                      2                      3
                      A                      A                      A
 Frequencies --    -27.6377                35.0089                63.0332
 Red. masses --      6.2988                 6.9327                 5.3526
 Frc consts  --      0.0028                 0.0050                 0.0125
 IR Inten    --      3.4057                 0.4044                 0.6007

                      4                      5                      6
                      A                      A                      A
 Frequencies --     89.8023               125.0319               162.7668
 Red. masses --      3.2246                10.2624                 1.1090
 Frc consts  --      0.0153                 0.0945                 0.0173
 IR Inten    --      2.6622                 1.0494                 0.0364

                      7                      8                      9
                      A                      A                      A
 Frequencies --    171.0385               196.0716               205.1964
 Red. masses --      2.7068                 3.5414                 2.9998
 Frc consts  --      0.0467                 0.0802                 0.0744
 IR Inten    --      0.8318                 6.5719                 0.2464

                     10                     11                     12
                      A                      A                      A
 Frequencies --    276.6161               307.1481               347.7025
 Red. masses --      2.4301                 3.3997                 2.7232
 Frc consts  --      0.1096                 0.1890                 0.1940
 IR Inten    --      0.8062                 3.2030                 5.9288

                     13                     14                     15
                      A                      A                      A
 Frequencies --    387.0894               404.4649               434.6155
 Red. masses --      2.0183                 2.3056                 3.8636
 Frc consts  --      0.1782                 0.2222                 0.4300
 IR Inten    --     13.9308                 7.4998                 6.3242

                     16                     17                     18
                      A                      A                      A
 Frequencies --    538.1002               544.7085               554.1498
 Red. masses --      2.5208                 2.4945                 3.4692
 Frc consts  --      0.4301                 0.4361                 0.6277
 IR Inten    --      3.5761                14.3373                 4.4525

                     19                     20                     21
                      A                      A                      A
 Frequencies --    577.1620               667.5414               704.7783
 Red. masses --      3.0030                 3.6202                 1.8121
 Frc consts  --      0.5894                 0.9505                 0.5303
 IR Inten    --      7.4788                 1.3384                20.9219

                     22                     23                     24
                      A                      A                      A
 Frequencies --    711.6652               729.2990               811.5407
 Red. masses --      2.9311                 4.6598                 1.7935
 Frc consts  --      0.8746                 1.4602                 0.6959
 IR Inten    --     26.4932                42.8777                 1.2543

                     25                     26                     27
                      A                      A                      A
 Frequencies --    854.5562               884.7623               895.6049
 Red. masses --      2.6860                 2.4899                 1.9608
 Frc consts  --      1.1557                 1.1484                 0.9266
 IR Inten    --     36.5533                 4.7680                 5.0868

                     28                     29                     30
                      A                      A                      A
 Frequencies --    912.6224               923.2256               943.6269
 Red. masses --      1.4354                 2.8785                 1.8194
 Frc consts  --      0.7044                 1.4456                 0.9545
 IR Inten    --     28.1652                 4.0771                 5.2438

                     31                     32                     33
                      A                      A                      A
 Frequencies --    956.4376               960.4062               991.7130
 Red. masses --      1.8284                 1.3649                 1.5679
 Frc consts  --      0.9855                 0.7418                 0.9085
 IR Inten    --      8.4924                 8.0322                 0.8009

                     34                     35                     36
                      A                      A                      A
 Frequencies --   1033.8221              1043.7926              1067.3505
 Red. masses --      1.4226                 1.4049                 2.1309
 Frc consts  --      0.8958                 0.9018                 1.4303
 IR Inten    --     12.0302                 4.4834                 4.3011

                     37                     38                     39
                      A                      A                      A
 Frequencies --   1129.9475              1160.9777              1170.5432
 Red. masses --      1.3089                 1.2498                 1.5610
 Frc consts  --      0.9846                 0.9925                 1.2602
 IR Inten    --     12.2849                 7.2517                14.2417

                     40                     41                     42
                      A                      A                      A
 Frequencies --   1181.9148              1202.2740              1239.2777
 Red. masses --      1.9556                 1.1955                 2.1235
 Frc consts  --      1.6095                 1.0181                 1.9215
 IR Inten    --     72.0481                 6.3342                 2.5898

                     43                     44                     45
                      A                      A                      A
 Frequencies --   1254.3300              1261.6044              1347.9959
 Red. masses --      1.5247                 1.2902                 1.5336
 Frc consts  --      1.4133                 1.2099                 1.6419
 IR Inten    --      0.8822                 8.6156                 9.4670

                     46                     47                     48
                      A                      A                      A
 Frequencies --   1356.7007              1360.6674              1381.6126
 Red. masses --      1.8286                 1.8639                 1.7808
 Frc consts  --      1.9831                 2.0331                 2.0028
 IR Inten    --     10.7688                50.3780                 5.6227

                     49                     50                     51
                      A                      A                      A
 Frequencies --   1384.7890              1399.5616              1412.2498
 Red. masses --      1.8267                 1.4543                 1.7336
 Frc consts  --      2.0639                 1.6783                 2.0371
 IR Inten    --      2.1888                18.7564                 1.4220

                     52                     53                     54
                      A                      A                      A
 Frequencies --   1426.4362              1455.4619              1460.2787
 Red. masses --      1.0902                 1.0419                 1.0915
 Frc consts  --      1.3070                 1.3005                 1.3713
 IR Inten    --      9.9150                 9.7309                 8.3065

                     55                     56                     57
                      A                      A                      A
 Frequencies --   1465.1031              1666.3348              1719.5894
 Red. masses --      1.0826                 8.2645                 6.6394
 Frc consts  --      1.3692                13.5205                11.5672
 IR Inten    --     10.3702                13.2188                11.6768

                     58                     59                     60
                      A                      A                      A
 Frequencies --   1724.2379              1849.1614              3038.3998
 Red. masses --      8.0190                12.5479                 1.0389
 Frc consts  --     14.0464                25.2796                 5.6507
 IR Inten    --     68.8285               259.2002                39.2066

                     61                     62                     63
                      A                      A                      A
 Frequencies --   3046.6810              3049.9009              3059.1160
 Red. masses --      1.0649                 1.0649                 1.0680
 Frc consts  --      5.8240                 5.8362                 5.8884
 IR Inten    --     30.7230                10.7862                 7.6587

                     64                     65                     66
                      A                      A                      A
 Frequencies --   3103.6958              3106.5361              3117.4859
 Red. masses --      1.0987                 1.1013                 1.1022
 Frc consts  --      6.2360                 6.2621                 6.3110
 IR Inten    --      1.0504                16.0406                15.1134

                     67                     68                     69
                      A                      A                      A
 Frequencies --   3131.9226              3157.4612              3206.1719
 Red. masses --      1.0986                 1.1036                 1.0874
 Frc consts  --      6.3491                 6.4822                 6.5858
 IR Inten    --     10.5987                15.0758                 2.4238

                     70                     71                     72
                      A                      A                      A
 Frequencies --   3214.3626              3228.8452              3250.0001
 Red. masses --      1.0936                 1.1006                 1.0988
 Frc consts  --      6.6571                 6.7602                 6.8378
 IR Inten    --     20.9898                13.7399                 2.0189

 - Thermochemistry -
 -------------------
 Temperature   298.150 Kelvin.  Pressure   1.00000 Atm.
 Atom     1 has atomic number  6 and mass  12.00000

 Molecular mass:   196.06549 amu.
 Principal axes and moments of inertia in atomic units:
                           1         2         3
     Eigenvalues --  2035.345283115.752804348.84466
           X            0.99697  -0.07776   0.00348
           Y            0.07774   0.99697   0.00402
           Z           -0.00379  -0.00373   0.99999
 This molecule is an asymmetric top.
 Rotational symmetry number  1.
 Warning -- assumption of classical behavior for rotation
           may cause significant error
 Rotational temperatures (Kelvin)      0.04255     0.02780     0.01992
 Rotational constants (GHZ):           0.88670     0.57923     0.41499
    1 imaginary frequencies ignored.
 Zero-point vibrational energy     557663.6 (Joules/Mol)
                                  133.28481 (Kcal/Mol)
 Warning -- explicit consideration of  18 degrees of freedom as
           vibrations may cause significant error
 Vibrational temperatures:     50.37    90.69   129.21   179.89   234.19
          (Kelvin)            246.09   282.10   295.23   397.99   441.92
                              500.27   556.94   581.93   625.31   774.21
                              783.71   797.30   830.41   960.44  1014.02
                             1023.93  1049.30  1167.63  1229.52  1272.98
                             1288.58  1313.06  1328.32  1357.67  1376.10
                             1381.81  1426.85  1487.44  1501.78  1535.68
                             1625.74  1670.39  1684.15  1700.51  1729.80
                             1783.04  1804.70  1815.17  1939.47  1951.99
                             1957.70  1987.83  1992.40  2013.66  2031.91
                             2052.32  2094.08  2101.02  2107.96  2397.48
                             2474.11  2480.79  2660.53  4371.58  4383.49
                             4388.13  4401.39  4465.53  4469.61  4485.37
                             4506.14  4542.88  4612.97  4624.75  4645.59
                             4676.03

 Zero-point correction=                           0.212403 (Hartree/Particle)
 Thermal correction to Energy=                    0.224866
 Thermal correction to Enthalpy=                  0.225811
 Thermal correction to Gibbs Free Energy=         0.172792
 Sum of electronic and zero-point Energies=           -961.490355
 Sum of electronic and thermal Energies=              -961.477892
 Sum of electronic and thermal Enthalpies=            -961.476948
 Sum of electronic and thermal Free Energies=         -961.529966

                     E (Thermal)             CV                S
                      KCal/Mol        Cal/Mol-Kelvin    Cal/Mol-Kelvin
 Total                  141.106             47.155            111.587
 Electronic               0.000              0.000              0.000
 Translational            0.889              2.981             41.725
 Rotational               0.889              2.981             31.689
 Vibrational            139.328             41.194             38.172
 Vibration     1          0.594              1.982              5.523
 Vibration     2          0.597              1.972              4.360
 Vibration     3          0.602              1.956              3.664
 Vibration     4          0.610              1.928              3.021
 Vibration     5          0.623              1.888              2.517
 Vibration     6          0.626              1.878              2.424
 Vibration     7          0.636              1.845              2.170
 Vibration     8          0.640              1.832              2.086
 Vibration     9          0.678              1.717              1.555
 Vibration    10          0.697              1.660              1.378
 Vibration    11          0.725              1.580              1.177
 Vibration    12          0.756              1.498              1.011
 Vibration    13          0.770              1.460              0.946
 Vibration    14          0.795              1.395              0.844
 Vibration    15          0.893              1.166              0.569
 Vibration    16          0.900              1.151              0.555
 Vibration    17          0.910              1.131              0.536
 Vibration    18          0.934              1.081              0.491

 Normal termination of Gaussian 16 at Sat Dec 30 20:57:28 2023.
