 Gaussian 16, Revision C.01,
 Gaussian 16:  ES64L-G16RevC.01  3-Jul-2019

 -----------------------------------------------------------
 # wb97xd def2svp scrf=(iefpcm,solvent=toluene) freq=noraman
 -----------------------------------------------------------

 -----------------------
 imda-1_1_opt_sqm_re.out
 -----------------------
 Symbolic Z-matrix:
 Charge =  0 Multiplicity = 1

                         Standard orientation:
 ---------------------------------------------------------------------
 Center     Atomic      Atomic             Coordinates (Angstroms)
 Number     Number       Type             X           Y           Z
 ---------------------------------------------------------------------
      1          6           0       -2.466949    0.314870   -0.219370
      2          6           0        0.988071    1.272229    1.116380
      3          6           0       -0.918680   -1.478460   -0.041000
      4          6           0        1.367421   -0.002401    1.098820
      5          6           0       -2.672169   -0.350330    0.939230
      6          6           0       -1.719670   -1.457690    1.046560
      7          6           0        0.227540   -2.403890   -0.322580
      8          1           0        0.463460   -2.978421    0.587510
      9          1           0       -0.073960   -3.148530   -1.079580
     10          6           0        1.487970   -1.714271   -0.857170
     11          1           0        2.261290   -2.451391   -1.120110
     12          1           0        1.251310   -1.189451   -1.800290
     13          6           0        2.164721   -0.663761    0.008880
     14          8           0        3.314181   -0.349121   -0.188720
     15          1           0        1.058071   -0.628251    1.941020
     16          1           0        0.413111    1.710250    1.933350
     17          6           0       -1.346679   -0.364160   -0.959480
     18          1           0       -1.687689   -0.753780   -1.936740
     19          1           0       -0.530129    0.344420   -1.183190
     20         17           0        1.284051    2.383799   -0.187990
     21          6           0       -3.171949    1.524260   -0.739290
     22          1           0       -2.465479    2.359290   -0.879040
     23          1           0       -3.960919    1.855311   -0.049510
     24          1           0       -3.634519    1.330141   -1.720850
     25          1           0       -1.651510   -2.140430    1.896300
     26          1           0       -3.423119   -0.099160    1.690810
 ---------------------------------------------------------------------

 SCF Done:  E(RwB97XD) =  -961.702758088     A.U. after   15 cycles

 The electronic state is 1-A.
 Alpha  occ. eigenvalues -- -101.68793 -19.25543 -10.40038 -10.36776 -10.32226
 Alpha  occ. eigenvalues --  -10.31259 -10.31231 -10.30185 -10.30080 -10.30050
 Alpha  occ. eigenvalues --  -10.29685 -10.29206 -10.29010  -9.59536  -7.34903
 Alpha  occ. eigenvalues --   -7.33980  -7.33911  -1.14500  -0.97844  -0.96150
 Alpha  occ. eigenvalues --   -0.89929  -0.86025  -0.83820  -0.79555  -0.77587
 Alpha  occ. eigenvalues --   -0.72960  -0.70511  -0.62719  -0.61631  -0.60762
 Alpha  occ. eigenvalues --   -0.59595  -0.57495  -0.55478  -0.54846  -0.53432
 Alpha  occ. eigenvalues --   -0.52541  -0.49932  -0.49800  -0.48957  -0.48601
 Alpha  occ. eigenvalues --   -0.47407  -0.45886  -0.45351  -0.44687  -0.43064
 Alpha  occ. eigenvalues --   -0.42831  -0.41365  -0.40119  -0.38209  -0.34790
 Alpha  occ. eigenvalues --   -0.33873  -0.28291
 Alpha virt. eigenvalues --    0.02934   0.04843   0.07721   0.12607   0.13317
 Alpha virt. eigenvalues --    0.14514   0.15302   0.16455   0.17482   0.18562
 Alpha virt. eigenvalues --    0.19277   0.20641   0.21725   0.22245   0.22713

 Mulliken charges:
               1
     1  C   -0.223244
     2  C   -0.018740
     3  C   -0.206732
     4  C   -0.031236
     5  C   -0.061697
     6  C   -0.062616
     7  C    0.095758
     8  H    0.029749
     9  H    0.050422
    10  C   -0.057598
    11  H    0.062167
    12  H    0.078699
    13  C    0.071094
    14  O   -0.224336
    15  H    0.081345
    16  H    0.099676
    17  C    0.127720
    18  H    0.064241
    19  H    0.038957
    20  Cl  -0.102461
    21  C    0.051588
    22  H    0.045734
    23  H    0.035056
    24  H    0.045102
    25  H    0.005714
    26  H    0.005635
 Sum of Mulliken charges =  -0.00000

 Dipole moment (field-independent basis, Debye):
    X=             -3.0670    Y=             -1.3973    Z=              0.4616  Tot=              3.4018
 Quadrupole moment (field-independent basis, Debye-Ang):
   XX=            -98.8821   YY=            -80.9233   ZZ=            -77.0221
   XY=             -5.4585   XZ=              0.9896   YZ=              0.5644

  Exact polarizability:     138.396     -15.990     147.002     -14.432     -10.781     126.680
 Approx polarizability:     132.017      -9.318     144.481     -16.252     -15.221     139.019

 ******    1 imaginary frequencies (negative Signs) ******

                      1                      2                      3
                      A                      A                      A
 Frequencies --    -27.8486                35.0754                63.1800
 Red. masses --      6.2940                 6.8818                 5.3703
 Frc consts  --      0.0029                 0.0050                 0.0126
 IR Inten    --      3.4129                 0.3917                 0.5905

                      4                      5                      6
                      A                      A                      A
 Frequencies --     90.1679               124.8620               162.9102
 Red. masses --      3.2295                10.2951                 1.1092
 Frc consts  --      0.0155                 0.0946                 0.0173
 IR Inten    --      2.6666                 1.0498                 0.0365

                      7                      8                      9
                      A                      A                      A
 Frequencies --    170.9553               196.3564               205.4522
 Red. masses --      2.7052                 3.5431                 3.0059
 Frc consts  --      0.0466                 0.0805                 0.0748
 IR Inten    --      0.8270                 6.6645                 0.2046

                     10                     11                     12
                      A                      A                      A
 Frequencies --    276.5949               307.1290               347.7982
 Red. masses --      2.4297                 3.4007                 2.7298
 Frc consts  --      0.1095                 0.1890                 0.1946
 IR Inten    --      0.8080                 3.2141                 5.8333

                     13                     14                     15
                      A                      A                      A
 Frequencies --    387.2605               404.8090               434.6282
 Red. masses --      2.0359                 2.2775                 3.8531
 Frc consts  --      0.1799                 0.2199                 0.4288
 IR Inten    --     13.7481                 7.6230                 6.3733

                     16                     17                     18
                      A                      A                      A
 Frequencies --    538.1025               544.7292               554.1640
 Red. masses --      2.5213                 2.4963                 3.4680
 Frc consts  --      0.4301                 0.4364                 0.6275
 IR Inten    --      3.5814                14.3228                 4.4615

                     19                     20                     21
                      A                      A                      A
 Frequencies --    577.1149               667.5533               704.7279
 Red. masses --      3.0024                 3.6199                 1.8078
 Frc consts  --      0.5892                 0.9504                 0.5290
 IR Inten    --      7.4733                 1.3448                21.1435

                     22                     23                     24
                      A                      A                      A
 Frequencies --    711.6528               729.2617               811.5411
 Red. masses --      2.9415                 4.6629                 1.7934
 Frc consts  --      0.8777                 1.4611                 0.6959
 IR Inten    --     26.2775                42.8386                 1.2521

                     25                     26                     27
                      A                      A                      A
 Frequencies --    854.4927               884.7574               895.6167
 Red. masses --      2.6842                 2.4890                 1.9612
 Frc consts  --      1.1547                 1.1480                 0.9269
 IR Inten    --     36.5580                 4.7737                 5.0839

                     28                     29                     30
                      A                      A                      A
 Frequencies --    912.6442               923.2471               943.6161
 Red. masses --      1.4360                 2.8753                 1.8195
 Frc consts  --      0.7047                 1.4440                 0.9545
 IR Inten    --     28.1465                 4.1078                 5.2319

                     31                     32                     33
                      A                      A                      A
 Frequencies --    956.4462               960.3296               991.7079
 Red. masses --      1.8225                 1.3681                 1.5680
 Frc consts  --      0.9823                 0.7434                 0.9086
 IR Inten    --      8.3192                 8.1924                 0.8028

                     34                     35                     36
                      A                      A                      A
 Frequencies --   1033.8293              1043.7927              1067.3304
 Red. masses --      1.4227                 1.4051                 2.1305
 Frc consts  --      0.8959                 0.9019                 1.4300
 IR Inten    --     12.0253                 4.4799                 4.2945

                     37                     38                     39
                      A                      A                      A
 Frequencies --   1129.9506              1160.9746              1170.5521
 Red. masses --      1.3088                 1.2492                 1.5608
 Frc consts  --      0.9846                 0.9921                 1.2600
 IR Inten    --     12.2711                 7.2101                14.1890

                     40                     41                     42
                      A                      A                      A
 Frequencies --   1181.8951              1202.2288              1239.2866
 Red. masses --      1.9574                 1.1956                 2.1228
 Frc consts  --      1.6110                 1.0181                 1.9209
 IR Inten    --     72.1417                 6.3011                 2.5878

                     43                     44                     45
                      A                      A                      A
 Frequencies --   1254.3370              1261.6024              1347.9547
 Red. masses --      1.5248                 1.2904                 1.5333
 Frc consts  --      1.4135                 1.2101                 1.6415
 IR Inten    --      0.8766                 8.6127                 9.5160

                     46                     47                     48
                      A                      A                      A
 Frequencies --   1356.6978              1360.6276              1381.6402
 Red. masses --      1.8290                 1.8644                 1.7898
 Frc consts  --      1.9835                 2.0336                 2.0130
 IR Inten    --     10.7024                50.3677                 5.5005

                     49                     50                     51
                      A                      A                      A
 Frequencies --   1384.8964              1399.8313              1412.2378
 Red. masses --      1.8360                 1.4417                 1.7340
 Frc consts  --      2.0748                 1.6645                 2.0376
 IR Inten    --      2.1673                18.9842                 1.4238

                     52                     53                     54
                      A                      A                      A
 Frequencies --   1426.4113              1455.4509              1460.3152
 Red. masses --      1.0903                 1.0419                 1.0915
 Frc consts  --      1.3070                 1.3004                 1.3714
 IR Inten    --      9.8776                 9.7198                 8.2961

                     55                     56                     57
                      A                      A                      A
 Frequencies --   1465.1103              1666.3522              1719.6109
 Red. masses --      1.0826                 8.2636                 6.6395
 Frc consts  --      1.3692                13.5192                11.5676
 IR Inten    --     10.3672                13.2195                11.6759

                     58                     59                     60
                      A                      A                      A
 Frequencies --   1724.1950              1849.1634              3038.3546
 Red. masses --      8.0196                12.5482                 1.0389
 Frc consts  --     14.0467                25.2803                 5.6506
 IR Inten    --     68.7305               259.2156                39.2232

                     61                     62                     63
                      A                      A                      A
 Frequencies --   3046.6340              3049.9041              3059.2828
 Red. masses --      1.0649                 1.0649                 1.0679
 Frc consts  --      5.8238                 5.8364                 5.8889
 IR Inten    --     30.8036                10.7332                 7.6315

                     64                     65                     66
                      A                      A                      A
 Frequencies --   3103.8549              3106.4586              3117.4276
 Red. masses --      1.0987                 1.1013                 1.1021
 Frc consts  --      6.2362                 6.2618                 6.3108
 IR Inten    --      1.0706                16.0367                15.1213

                     67                     68                     69
                      A                      A                      A
 Frequencies --   3131.9386              3157.4595              3206.3108
 Red. masses --      1.0986                 1.1036                 1.0874
 Frc consts  --      6.3493                 6.4821                 6.5864
 IR Inten    --     10.5896                15.0766                 2.4213

                     70                     71                     72
                      A                      A                      A
 Frequencies --   3214.3852              3228.8666              3250.3059
 Red. masses --      1.0936                 1.1006                 1.0987
 Frc consts  --      6.6571                 6.7602                 6.8390
 IR Inten    --     20.9880                13.7369                 2.0233

 - Thermochemistry -
 -------------------
 Temperature   298.150 Kelvin.  Pressure   1.00000 Atm.
 Atom     1 has atomic number  6 and mass  12.00000

 Molecular mass:   196.06549 amu.
 Principal axes and moments of inertia in atomic units:
                           1         2         3
     Eigenvalues --  2035.257903114.774354347.94925
           X            0.99696  -0.07781   0.00346
           Y            0.07779   0.99696   0.00404
           Z           -0.00376  -0.00376   0.99999
 This molecule is an asymmetric top.
 Rotational symmetry number  1.
 Warning -- assumption of classical behavior for rotation
           may cause significant error
 Rotational temperatures (Kelvin)      0.04256     0.02781     0.01992
 Rotational constants (GHZ):           0.88674     0.57941     0.41508
    1 imaginary frequencies ignored.
 Zero-point vibrational energy     557677.2 (Joules/Mol)
                                  133.28804 (Kcal/Mol)
 Warning -- explicit consideration of  18 degrees of freedom as
           vibrations may cause significant error
 Vibrational temperatures:     50.47    90.90   129.73   179.65   234.39
          (Kelvin)            245.97   282.51   295.60   397.96   441.89
                              500.40   557.18   582.43   625.33   774.21
                              783.74   797.32   830.34   960.46  1013.95
                             1023.91  1049.24  1167.63  1229.42  1272.97
                             1288.59  1313.09  1328.35  1357.65  1376.11
                             1381.70  1426.85  1487.45  1501.78  1535.65
                             1625.75  1670.38  1684.16  1700.48  1729.74
                             1783.06  1804.71  1815.16  1939.41  1951.99
                             1957.64  1987.87  1992.56  2014.05  2031.90
                             2052.29  2094.07  2101.07  2107.97  2397.51
                             2474.14  2480.73  2660.53  4371.51  4383.43
                             4388.13  4401.63  4465.75  4469.50  4485.28
                             4506.16  4542.88  4613.17  4624.78  4645.62
                             4676.47

 Zero-point correction=                           0.212408 (Hartree/Particle)
 Thermal correction to Energy=                    0.224869
 Thermal correction to Enthalpy=                  0.225813
 Thermal correction to Gibbs Free Energy=         0.172805
 Sum of electronic and zero-point Energies=           -961.490350
 Sum of electronic and thermal Energies=              -961.477889
 Sum of electronic and thermal Enthalpies=            -961.476945
 Sum of electronic and thermal Free Energies=         -961.529953

                     E (Thermal)             CV                S
                      KCal/Mol        Cal/Mol-Kelvin    Cal/Mol-Kelvin
 Total                  141.108             47.153            111.565
 Electronic               0.000              0.000              0.000
 Translational            0.889              2.981             41.725
 Rotational               0.889              2.981             31.689
 Vibrational            139.330             41.192             38.151
 Vibration     1          0.594              1.982              5.519
 Vibration     2          0.597              1.972              4.355
 Vibration     3          0.602              1.956              3.656
 Vibration     4          0.610              1.928              3.024
 Vibration     5          0.623              1.888              2.516
 Vibration     6          0.626              1.878              2.425
 Vibration     7          0.636              1.845              2.167
 Vibration     8          0.640              1.832              2.084
 Vibration     9          0.678              1.717              1.555
 Vibration    10          0.697              1.660              1.378
 Vibration    11          0.725              1.580              1.176
 Vibration    12          0.756              1.497              1.011
 Vibration    13          0.770              1.460              0.945
 Vibration    14          0.795              1.395              0.844
 Vibration    15          0.893              1.166              0.569
 Vibration    16          0.900              1.151              0.555
 Vibration    17          0.910              1.131              0.536
 Vibration    18          0.934              1.081              0.491

 Normal termination of Gaussian 16 at Sat Dec 30 20:57:41 2023.
