 Gaussian 16, Revision C.01,
 Gaussian 16:  ES64L-G16RevC.01  3-Jul-2019

 -----------------------------------------------------------
 # wb97xd def2svp scrf=(iefpcm,solvent=toluene) freq=noraman
 -----------------------------------------------------------

 --------------------------
 imda-1_1_opt_sqm_reopt.out
 --------------------------
 Symbolic Z-matrix:
 Charge =  0 Multiplicity = 1

                         Standard orientation:
 ---------------------------------------------------------------------
 Center     Atomic      Atomic             Coordinates (Angstroms)
 Number     Number       Type             X           Y           Z
 ---------------------------------------------------------------------
      1          6           0       -2.467169    0.314922   -0.219370
      2          6           0        0.988611    1.272131    1.116570
      3          6           0       -0.918780   -1.478289   -0.040810
      4          6           0        1.367871   -0.002519    1.098860
      5          6           0       -2.672319   -0.350138    0.939320
      6          6           0       -1.719740   -1.457418    1.046780
      7          6           0        0.227390   -2.403779   -0.322390
      8          1           0        0.463450   -2.978149    0.587730
      9          1           0       -0.074231   -3.148539   -1.079230
     10          6           0        1.487720   -1.714220   -0.857310
     11          1           0        2.260900   -2.451380   -1.120620
     12          1           0        1.250750   -1.189229   -1.800260
     13          6           0        2.164820   -0.663880    0.008650
     14          8           0        3.314251   -0.349290   -0.189260
     15          1           0        1.058700   -0.628399    1.941120
     16          1           0        0.413921    1.710181    1.933720
     17          6           0       -1.346819   -0.364078   -0.959380
     18          1           0       -1.687670   -0.753728   -1.936680
     19          1           0       -0.530309    0.344571   -1.183030
     20         17           0        1.284232    2.383681   -0.187900
     21          6           0       -3.172329    1.524132   -0.739520
     22          1           0       -2.465878    2.359082   -0.879930
     23          1           0       -3.961009    1.855483   -0.049550
     24          1           0       -3.635299    1.329642   -1.720810
     25          1           0       -1.651520   -2.140048    1.896610
     26          1           0       -3.423279   -0.098918    1.690880
 ---------------------------------------------------------------------

 SCF Done:  E(RwB97XD) =  -961.702758099     A.U. after   15 cycles

 The electronic state is 1-A.
 Alpha  occ. eigenvalues -- -101.68793 -19.25544 -10.40038 -10.36777 -10.32226
 Alpha  occ. eigenvalues --  -10.31259 -10.31231 -10.30185 -10.30079 -10.30049
 Alpha  occ. eigenvalues --  -10.29685 -10.29206 -10.29009  -9.59536  -7.34903
 Alpha  occ. eigenvalues --   -7.33980  -7.33911  -1.14499  -0.97844  -0.96150
 Alpha  occ. eigenvalues --   -0.89929  -0.86025  -0.83820  -0.79555  -0.77587
 Alpha  occ. eigenvalues --   -0.72959  -0.70511  -0.62719  -0.61631  -0.60763
 Alpha  occ. eigenvalues --   -0.59595  -0.57495  -0.55478  -0.54846  -0.53431
 Alpha  occ. eigenvalues --   -0.52541  -0.49932  -0.49800  -0.48956  -0.48601
 Alpha  occ. eigenvalues --   -0.47407  -0.45887  -0.45352  -0.44686  -0.43064
 Alpha  occ. eigenvalues --   -0.42831  -0.41365  -0.40119  -0.38208  -0.34790
 Alpha  occ. eigenvalues --   -0.33873  -0.28291
 Alpha virt. eigenvalues --    0.02933   0.04843   0.07721   0.12607   0.13317
 Alpha virt. eigenvalues --    0.14513   0.15302   0.16455   0.17483   0.18562
 Alpha virt. eigenvalues --    0.19278   0.20641   0.21724   0.22245   0.22714

 Mulliken charges:
               1
     1  C   -0.223229
     2  C   -0.018730
     3  C   -0.206706
     4  C   -0.031255
     5  C   -0.061699
     6  C   -0.062620
     7  C    0.095758
     8  H    0.029742
     9  H    0.050428
    10  C   -0.057605
    11  H    0.062171
    12  H    0.078700
    13  C    0.071102
    14  O   -0.224344
    15  H    0.081350
    16  H    0.099682
    17  C    0.127688
    18  H    0.064234
    19  H    0.038963
    20  Cl  -0.102461
    21  C    0.051579
    22  H    0.045730
    23  H    0.035058
    24  H    0.045112
    25  H    0.005715
    26  H    0.005638
 Sum of Mulliken charges =  -0.00000

 Dipole moment (field-independent basis, Debye):
    X=             -3.0669    Y=             -1.3971    Z=              0.4623  Tot=              3.4017
 Quadrupole moment (field-independent basis, Debye-Ang):
   XX=            -98.8831   YY=            -80.9232   ZZ=            -77.0209
   XY=             -5.4572   XZ=              0.9947   YZ=              0.5644

  Exact polarizability:     138.394     -15.993     146.994     -14.431     -10.780     126.689
 Approx polarizability:     132.013      -9.322     144.475     -16.251     -15.220     139.026

 ******    1 imaginary frequencies (negative Signs) ******

                      1                      2                      3
                      A                      A                      A
 Frequencies --    -27.7893                35.1436                63.1461
 Red. masses --      6.2947                 6.8828                 5.3708
 Frc consts  --      0.0029                 0.0050                 0.0126
 IR Inten    --      3.4115                 0.3916                 0.5866

                      4                      5                      6
                      A                      A                      A
 Frequencies --     90.1267               124.8929               162.9136
 Red. masses --      3.2304                10.3102                 1.1091
 Frc consts  --      0.0155                 0.0948                 0.0173
 IR Inten    --      2.6681                 1.0501                 0.0369

                      7                      8                      9
                      A                      A                      A
 Frequencies --    171.0405               196.2288               205.3699
 Red. masses --      2.7049                 3.5432                 3.0026
 Frc consts  --      0.0466                 0.0804                 0.0746
 IR Inten    --      0.8310                 6.6143                 0.2224

                     10                     11                     12
                      A                      A                      A
 Frequencies --    276.5971               307.1401               347.7632
 Red. masses --      2.4304                 3.3994                 2.7269
 Frc consts  --      0.1096                 0.1889                 0.1943
 IR Inten    --      0.8066                 3.2094                 5.8761

                     13                     14                     15
                      A                      A                      A
 Frequencies --    387.2117               404.6334               434.6472
 Red. masses --      2.0284                 2.2890                 3.8574
 Frc consts  --      0.1792                 0.2208                 0.4294
 IR Inten    --     13.8237                 7.5804                 6.3512

                     16                     17                     18
                      A                      A                      A
 Frequencies --    538.1098               544.7677               554.1752
 Red. masses --      2.5210                 2.4987                 3.4641
 Frc consts  --      0.4301                 0.4369                 0.6268
 IR Inten    --      3.5513                14.3118                 4.4736

                     19                     20                     21
                      A                      A                      A
 Frequencies --    577.1509               667.5578               704.8356
 Red. masses --      3.0050                 3.6209                 1.8159
 Frc consts  --      0.5898                 0.9507                 0.5315
 IR Inten    --      7.4829                 1.3358                20.7572

                     22                     23                     24
                      A                      A                      A
 Frequencies --    711.6852               729.2767               811.5488
 Red. masses --      2.9237                 4.6461                 1.7933
 Frc consts  --      0.8725                 1.4559                 0.6959
 IR Inten    --     26.6072                42.8949                 1.2575

                     25                     26                     27
                      A                      A                      A
 Frequencies --    854.5004               884.7582               895.6166
 Red. masses --      2.6850                 2.4887                 1.9612
 Frc consts  --      1.1551                 1.1478                 0.9268
 IR Inten    --     36.5526                 4.7692                 5.0869

                     28                     29                     30
                      A                      A                      A
 Frequencies --    912.6436               923.2382               943.6306
 Red. masses --      1.4356                 2.8774                 1.8191
 Frc consts  --      0.7045                 1.4450                 0.9544
 IR Inten    --     28.1628                 4.0915                 5.2328

                     31                     32                     33
                      A                      A                      A
 Frequencies --    956.4490               960.4683               991.7136
 Red. masses --      1.8295                 1.3642                 1.5680
 Frc consts  --      0.9861                 0.7415                 0.9086
 IR Inten    --      8.5172                 7.9991                 0.8017

                     34                     35                     36
                      A                      A                      A
 Frequencies --   1033.8305              1043.7906              1067.3391
 Red. masses --      1.4227                 1.4050                 2.1308
 Frc consts  --      0.8959                 0.9019                 1.4302
 IR Inten    --     12.0266                 4.4816                 4.2976

                     37                     38                     39
                      A                      A                      A
 Frequencies --   1129.9542              1160.9698              1170.5497
 Red. masses --      1.3088                 1.2492                 1.5601
 Frc consts  --      0.9845                 0.9921                 1.2595
 IR Inten    --     12.2690                 7.1936                14.1538

                     40                     41                     42
                      A                      A                      A
 Frequencies --   1181.8928              1202.2322              1239.2785
 Red. masses --      1.9586                 1.1954                 2.1239
 Frc consts  --      1.6120                 1.0180                 1.9219
 IR Inten    --     72.1817                 6.3069                 2.5846

                     43                     44                     45
                      A                      A                      A
 Frequencies --   1254.3334              1261.6171              1347.9666
 Red. masses --      1.5245                 1.2901                 1.5333
 Frc consts  --      1.4132                 1.2099                 1.6415
 IR Inten    --      0.8800                 8.6184                 9.5196

                     46                     47                     48
                      A                      A                      A
 Frequencies --   1356.6842              1360.6397              1381.6104
 Red. masses --      1.8285                 1.8646                 1.7863
 Frc consts  --      1.9829                 2.0338                 2.0090
 IR Inten    --     10.7358                50.3542                 5.5462

                     49                     50                     51
                      A                      A                      A
 Frequencies --   1384.8647              1399.7183              1412.2405
 Red. masses --      1.8324                 1.4470                 1.7338
 Frc consts  --      2.0705                 1.6703                 2.0373
 IR Inten    --      2.1750                18.8895                 1.4222

                     52                     53                     54
                      A                      A                      A
 Frequencies --   1426.4585              1455.4512              1460.2903
 Red. masses --      1.0902                 1.0419                 1.0915
 Frc consts  --      1.3070                 1.3004                 1.3713
 IR Inten    --      9.9021                 9.7261                 8.2997

                     55                     56                     57
                      A                      A                      A
 Frequencies --   1465.1137              1666.3409              1719.6003
 Red. masses --      1.0826                 8.2640                 6.6393
 Frc consts  --      1.3692                13.5198                11.5671
 IR Inten    --     10.3674                13.2157                11.6891

                     58                     59                     60
                      A                      A                      A
 Frequencies --   1724.2106              1849.1140              3038.3448
 Red. masses --      8.0192                12.5479                 1.0389
 Frc consts  --     14.0462                25.2783                 5.6505
 IR Inten    --     68.7179               259.2098                39.2232

                     61                     62                     63
                      A                      A                      A
 Frequencies --   3046.6592              3049.9152              3059.2434
 Red. masses --      1.0650                 1.0649                 1.0679
 Frc consts  --      5.8241                 5.8365                 5.8886
 IR Inten    --     30.7366                10.7459                 7.6792

                     64                     65                     66
                      A                      A                      A
 Frequencies --   3103.8099              3106.6360              3117.4128
 Red. masses --      1.0987                 1.1013                 1.1021
 Frc consts  --      6.2361                 6.2623                 6.3107
 IR Inten    --      1.0619                16.0258                15.1370

                     67                     68                     69
                      A                      A                      A
 Frequencies --   3131.8021              3157.4497              3206.2071
 Red. masses --      1.0987                 1.1036                 1.0874
 Frc consts  --      6.3489                 6.4821                 6.5860
 IR Inten    --     10.6039                15.0772                 2.4218

                     70                     71                     72
                      A                      A                      A
 Frequencies --   3214.3417              3228.8227              3250.2665
 Red. masses --      1.0936                 1.1006                 1.0987
 Frc consts  --      6.6570                 6.7601                 6.8389
 IR Inten    --     20.9873                13.7375                 2.0242

 - Thermochemistry -
 -------------------
 Temperature   298.150 Kelvin.  Pressure   1.00000 Atm.
 Atom     1 has atomic number  6 and mass  12.00000

 Molecular mass:   196.06549 amu.
 Principal axes and moments of inertia in atomic units:
                           1         2         3
     Eigenvalues --  2035.148203115.268214348.16679
           X            0.99697  -0.07776   0.00347
           Y            0.07775   0.99697   0.00404
           Z           -0.00377  -0.00375   0.99999
 This molecule is an asymmetric top.
 Rotational symmetry number  1.
 Warning -- assumption of classical behavior for rotation
           may cause significant error
 Rotational temperatures (Kelvin)      0.04256     0.02780     0.01992
 Rotational constants (GHZ):           0.88679     0.57932     0.41506
    1 imaginary frequencies ignored.
 Zero-point vibrational energy     557675.0 (Joules/Mol)
                                  133.28753 (Kcal/Mol)
 Warning -- explicit consideration of  18 degrees of freedom as
           vibrations may cause significant error
 Vibrational temperatures:     50.56    90.85   129.67   179.69   234.40
          (Kelvin)            246.09   282.33   295.48   397.96   441.91
                              500.35   557.11   582.18   625.36   774.22
                              783.80   797.33   830.39   960.47  1014.10
                             1023.96  1049.27  1167.64  1229.44  1272.97
                             1288.59  1313.09  1328.33  1357.67  1376.12
                             1381.90  1426.85  1487.45  1501.78  1535.66
                             1625.75  1670.38  1684.16  1700.48  1729.74
                             1783.05  1804.71  1815.19  1939.42  1951.97
                             1957.66  1987.83  1992.51  2013.88  2031.90
                             2052.36  2094.07  2101.03  2107.97  2397.49
                             2474.12  2480.75  2660.46  4371.50  4383.46
                             4388.15  4401.57  4465.69  4469.76  4485.26
                             4505.96  4542.87  4613.02  4624.72  4645.56
                             4676.41

 Zero-point correction=                           0.212407 (Hartree/Particle)
 Thermal correction to Energy=                    0.224869
 Thermal correction to Enthalpy=                  0.225813
 Thermal correction to Gibbs Free Energy=         0.172805
 Sum of electronic and zero-point Energies=           -961.490351
 Sum of electronic and thermal Energies=              -961.477889
 Sum of electronic and thermal Enthalpies=            -961.476945
 Sum of electronic and thermal Free Energies=         -961.529953

                     E (Thermal)             CV                S
                      KCal/Mol        Cal/Mol-Kelvin    Cal/Mol-Kelvin
 Total                  141.107             47.153            111.564
 Electronic               0.000              0.000              0.000
 Translational            0.889              2.981             41.725
 Rotational               0.889              2.981             31.689
 Vibrational            139.330             41.192             38.150
 Vibration     1          0.594              1.982              5.516
 Vibration     2          0.597              1.972              4.356
 Vibration     3          0.602              1.956              3.657
 Vibration     4          0.610              1.928              3.023
 Vibration     5          0.623              1.888              2.516
 Vibration     6          0.626              1.878              2.424
 Vibration     7          0.636              1.845              2.168
 Vibration     8          0.640              1.832              2.084
 Vibration     9          0.678              1.717              1.555
 Vibration    10          0.697              1.660              1.378
 Vibration    11          0.725              1.580              1.176
 Vibration    12          0.756              1.497              1.011
 Vibration    13          0.770              1.460              0.946
 Vibration    14          0.795              1.395              0.844
 Vibration    15          0.893              1.166              0.569
 Vibration    16          0.900              1.151              0.555
 Vibration    17          0.910              1.131              0.536
 Vibration    18          0.934              1.081              0.491

 Normal termination of Gaussian 16 at Sat Dec 30 20:57:53 2023.
