 Gaussian 16, Revision C.01,
 Gaussian 16:  ES64L-G16RevC.01  3-Jul-2019

 ----------------------------------------------------------------------
 # wb97xd def2svp geom=allchk scrf=(iefpcm,solvent=toluene) opt=(readfc
 ,ts,noeigen,maxcycles=50,maxstep=10)
 ----------------------------------------------------------------------

 Structure from the checkpoint file:  "imda-1_1_hf.chk"
 -----------------------
 3a_exo_ts_26_reopt2.out
 -----------------------
 Charge =  0 Multiplicity = 1

 SCF Done:  E(RwB97XD) =  -961.702758624     A.U. after   15 cycles
 SCF Done:  E(RwB97XD) =  -961.702758337     A.U. after    8 cycles
 SCF Done:  E(RwB97XD) =  -961.702758527     A.U. after    8 cycles
 SCF Done:  E(RwB97XD) =  -961.702758286     A.U. after    8 cycles
 Optimization completed.
    -- Stationary point found.

                         Standard orientation:
 ---------------------------------------------------------------------
 Center     Atomic      Atomic             Coordinates (Angstroms)
 Number     Number       Type             X           Y           Z
 ---------------------------------------------------------------------
      1          6           0       -2.467964    0.315976   -0.219462
      2          6           0        0.990266    1.271958    1.116322
      3          6           0       -0.919895   -1.477457   -0.040360
      4          6           0        1.368013   -0.003138    1.098526
      5          6           0       -2.672963   -0.348459    0.939617
      6          6           0       -1.720641   -1.455938    1.047365
      7          6           0        0.225474   -2.403856   -0.322180
      8          1           0        0.461163   -2.978507    0.587880
      9          1           0       -0.076944   -3.148262   -1.079039
     10          6           0        1.486393   -1.715430   -0.857224
     11          1           0        2.258941   -2.453312   -1.120291
     12          1           0        1.249925   -1.190493   -1.800348
     13          6           0        2.164354   -0.665395    0.008436
     14          8           0        3.313989   -0.351703   -0.189699
     15          1           0        1.058078   -0.628675    1.940759
     16          1           0        0.416022    1.710574    1.933522
     17          6           0       -1.347785   -0.363504   -0.959301
     18          1           0       -1.688479   -0.753279   -1.936595
     19          1           0       -0.531106    0.344989   -1.182865
     20         17           0        1.287376    2.383403   -0.187872
     21          6           0       -3.172813    1.525253   -0.739866
     22          1           0       -2.466632    2.360826   -0.877889
     23          1           0       -3.963163    1.855419   -0.051236
     24          1           0       -3.633533    1.331454   -1.722348
     25          1           0       -1.652516   -2.138309    1.897407
     26          1           0       -3.423688   -0.096707    1.691230
 ---------------------------------------------------------------------

 The electronic state is 1-A.
 Alpha  occ. eigenvalues -- -101.68792 -19.25543 -10.40038 -10.36777 -10.32225
 Alpha  occ. eigenvalues --  -10.31259 -10.31231 -10.30186 -10.30080 -10.30050
 Alpha  occ. eigenvalues --  -10.29686 -10.29207 -10.29010  -9.59535  -7.34902
 Alpha  occ. eigenvalues --   -7.33980  -7.33911  -1.14499  -0.97844  -0.96150
 Alpha  occ. eigenvalues --   -0.89929  -0.86025  -0.83820  -0.79556  -0.77588
 Alpha  occ. eigenvalues --   -0.72960  -0.70511  -0.62719  -0.61631  -0.60762
 Alpha  occ. eigenvalues --   -0.59595  -0.57495  -0.55478  -0.54845  -0.53431
 Alpha  occ. eigenvalues --   -0.52542  -0.49932  -0.49800  -0.48957  -0.48601
 Alpha  occ. eigenvalues --   -0.47408  -0.45887  -0.45352  -0.44687  -0.43064
 Alpha  occ. eigenvalues --   -0.42832  -0.41364  -0.40118  -0.38208  -0.34791
 Alpha  occ. eigenvalues --   -0.33873  -0.28291
 Alpha virt. eigenvalues --    0.02930   0.04843   0.07725   0.12608   0.13316
 Alpha virt. eigenvalues --    0.14512   0.15302   0.16456   0.17480   0.18562
 Alpha virt. eigenvalues --    0.19276   0.20640   0.21728   0.22242   0.22713

 Mulliken charges:
               1
     1  C   -0.223248
     2  C   -0.018743
     3  C   -0.206766
     4  C   -0.031270
     5  C   -0.061692
     6  C   -0.062597
     7  C    0.095721
     8  H    0.029740
     9  H    0.050433
    10  C   -0.057575
    11  H    0.062173
    12  H    0.078696
    13  C    0.071104
    14  O   -0.224348
    15  H    0.081330
    16  H    0.099690
    17  C    0.127747
    18  H    0.064220
    19  H    0.039000
    20  Cl  -0.102472
    21  C    0.051568
    22  H    0.045819
    23  H    0.035067
    24  H    0.045048
    25  H    0.005716
    26  H    0.005638
 Sum of Mulliken charges =  -0.00000

 Dipole moment (field-independent basis, Debye):
    X=             -3.0689    Y=             -1.3947    Z=              0.4625  Tot=              3.4025
 Quadrupole moment (field-independent basis, Debye-Ang):
   XX=            -98.8924   YY=            -80.9158   ZZ=            -77.0213
   XY=             -5.4452   XZ=              0.9991   YZ=              0.5659

 Normal termination of Gaussian 16 at Fri Dec 22 18:01:25 2023.
