 Gaussian 16, Revision C.01,
 Gaussian 16:  ES64L-G16RevC.01  3-Jul-2019

 -----------------------------------------------------------
 # wb97xd def2svp scrf=(iefpcm,solvent=toluene) freq=noraman
 -----------------------------------------------------------

 -----------------------
 imda-1_1_opt_dft_re.out
 -----------------------
 Symbolic Z-matrix:
 Charge =  0 Multiplicity = 1

                         Standard orientation:
 ---------------------------------------------------------------------
 Center     Atomic      Atomic             Coordinates (Angstroms)
 Number     Number       Type             X           Y           Z
 ---------------------------------------------------------------------
      1          6           0       -2.466899    0.314913   -0.219539
      2          6           0        0.988422    1.272089    1.116611
      3          6           0       -0.918701   -1.478439   -0.040699
      4          6           0        1.367751   -0.002531    1.098791
      5          6           0       -2.672170   -0.349997    0.939221
      6          6           0       -1.719721   -1.457368    1.046841
      7          6           0        0.227438   -2.404020   -0.322079
      8          1           0        0.463448   -2.978230    0.588171
      9          1           0       -0.074173   -3.148910   -1.078789
     10          6           0        1.487809   -1.714591   -0.857059
     11          1           0        2.261088   -2.451792   -1.119909
     12          1           0        1.250969   -1.190051   -1.800309
     13          6           0        2.164700   -0.663782    0.008521
     14          8           0        3.313960   -0.348823   -0.189709
     15          1           0        1.058610   -0.628481    1.941011
     16          1           0        0.413702    1.710020    1.933851
     17          6           0       -1.346620   -0.364309   -0.959439
     18          1           0       -1.687540   -0.754098   -1.936659
     19          1           0       -0.530029    0.344201   -1.183209
     20         17           0        1.283933    2.383839   -0.187699
     21          6           0       -3.171878    1.524173   -0.739809
     22          1           0       -2.465397    2.359153   -0.879799
     23          1           0       -3.960837    1.855434   -0.050119
     24          1           0       -3.634448    1.329774   -1.721309
     25          1           0       -1.651602   -2.139908    1.896751
     26          1           0       -3.423129   -0.098606    1.690721
 ---------------------------------------------------------------------

 SCF Done:  E(RwB97XD) =  -961.702758128     A.U. after   15 cycles

 The electronic state is 1-A.
 Alpha  occ. eigenvalues -- -101.68792 -19.25543 -10.40038 -10.36777 -10.32225
 Alpha  occ. eigenvalues --  -10.31258 -10.31231 -10.30185 -10.30079 -10.30049
 Alpha  occ. eigenvalues --  -10.29685 -10.29206 -10.29009  -9.59535  -7.34903
 Alpha  occ. eigenvalues --   -7.33980  -7.33911  -1.14500  -0.97844  -0.96150
 Alpha  occ. eigenvalues --   -0.89929  -0.86025  -0.83820  -0.79555  -0.77587
 Alpha  occ. eigenvalues --   -0.72959  -0.70510  -0.62719  -0.61631  -0.60762
 Alpha  occ. eigenvalues --   -0.59595  -0.57495  -0.55478  -0.54846  -0.53432
 Alpha  occ. eigenvalues --   -0.52541  -0.49932  -0.49800  -0.48956  -0.48601
 Alpha  occ. eigenvalues --   -0.47407  -0.45887  -0.45351  -0.44686  -0.43064
 Alpha  occ. eigenvalues --   -0.42831  -0.41365  -0.40119  -0.38208  -0.34790
 Alpha  occ. eigenvalues --   -0.33873  -0.28291
 Alpha virt. eigenvalues --    0.02932   0.04843   0.07724   0.12607   0.13317
 Alpha virt. eigenvalues --    0.14514   0.15302   0.16454   0.17482   0.18562
 Alpha virt. eigenvalues --    0.19277   0.20641   0.21726   0.22245   0.22714

 Mulliken charges:
               1
     1  C   -0.223238
     2  C   -0.018733
     3  C   -0.206732
     4  C   -0.031250
     5  C   -0.061697
     6  C   -0.062614
     7  C    0.095779
     8  H    0.029744
     9  H    0.050425
    10  C   -0.057642
    11  H    0.062183
    12  H    0.078704
    13  C    0.071094
    14  O   -0.224336
    15  H    0.081336
    16  H    0.099691
    17  C    0.127707
    18  H    0.064239
    19  H    0.038959
    20  Cl  -0.102449
    21  C    0.051589
    22  H    0.045734
    23  H    0.035055
    24  H    0.045102
    25  H    0.005713
    26  H    0.005636
 Sum of Mulliken charges =  -0.00000

 Dipole moment (field-independent basis, Debye):
    X=             -3.0662    Y=             -1.3982    Z=              0.4630  Tot=              3.4016
 Quadrupole moment (field-independent basis, Debye-Ang):
   XX=            -98.8798   YY=            -80.9225   ZZ=            -77.0215
   XY=             -5.4603   XZ=              0.9968   YZ=              0.5646

  Exact polarizability:     138.388     -15.994     147.003     -14.432     -10.779     126.688
 Approx polarizability:     132.009      -9.321     144.481     -16.255     -15.217     139.026

 ******    1 imaginary frequencies (negative Signs) ******

                      1                      2                      3
                      A                      A                      A
 Frequencies --    -27.8372                35.0423                63.1565
 Red. masses --      6.2945                 6.8838                 5.3720
 Frc consts  --      0.0029                 0.0050                 0.0126
 IR Inten    --      3.4170                 0.3915                 0.5871

                      4                      5                      6
                      A                      A                      A
 Frequencies --     90.1031               124.8626               162.8615
 Red. masses --      3.2288                10.2954                 1.1092
 Frc consts  --      0.0154                 0.0946                 0.0173
 IR Inten    --      2.6671                 1.0490                 0.0367

                      7                      8                      9
                      A                      A                      A
 Frequencies --    171.0150               196.2615               205.3781
 Red. masses --      2.7050                 3.5439                 3.0032
 Frc consts  --      0.0466                 0.0804                 0.0746
 IR Inten    --      0.8279                 6.6195                 0.2210

                     10                     11                     12
                      A                      A                      A
 Frequencies --    276.6069               307.1379               347.7565
 Red. masses --      2.4298                 3.4008                 2.7271
 Frc consts  --      0.1095                 0.1890                 0.1943
 IR Inten    --      0.8058                 3.2108                 5.8739

                     13                     14                     15
                      A                      A                      A
 Frequencies --    387.1931               404.6472               434.6251
 Red. masses --      2.0284                 2.2888                 3.8587
 Frc consts  --      0.1792                 0.2208                 0.4295
 IR Inten    --     13.8242                 7.5808                 6.3477

                     16                     17                     18
                      A                      A                      A
 Frequencies --    538.1064               544.7570               554.1586
 Red. masses --      2.5211                 2.4975                 3.4650
 Frc consts  --      0.4301                 0.4367                 0.6269
 IR Inten    --      3.5624                14.3109                 4.4723

                     19                     20                     21
                      A                      A                      A
 Frequencies --    577.1608               667.5405               704.8484
 Red. masses --      3.0052                 3.6214                 1.8181
 Frc consts  --      0.5898                 0.9508                 0.5322
 IR Inten    --      7.4853                 1.3352                20.6526

                     22                     23                     24
                      A                      A                      A
 Frequencies --    711.6911               729.2947               811.5538
 Red. masses --      2.9192                 4.6431                 1.7933
 Frc consts  --      0.8712                 1.4550                 0.6959
 IR Inten    --     26.6973                42.9144                 1.2584

                     25                     26                     27
                      A                      A                      A
 Frequencies --    854.5237               884.7615               895.6174
 Red. masses --      2.6851                 2.4898                 1.9608
 Frc consts  --      1.1552                 1.1483                 0.9267
 IR Inten    --     36.5529                 4.7689                 5.0885

                     28                     29                     30
                      A                      A                      A
 Frequencies --    912.6399               923.2396               943.6265
 Red. masses --      1.4356                 2.8769                 1.8194
 Frc consts  --      0.7045                 1.4448                 0.9545
 IR Inten    --     28.1618                 4.0920                 5.2385

                     31                     32                     33
                      A                      A                      A
 Frequencies --    956.4539               960.4925               991.7097
 Red. masses --      1.8317                 1.3628                 1.5680
 Frc consts  --      0.9873                 0.7407                 0.9086
 IR Inten    --      8.5913                 7.9344                 0.8019

                     34                     35                     36
                      A                      A                      A
 Frequencies --   1033.8312              1043.7807              1067.3381
 Red. masses --      1.4227                 1.4050                 2.1306
 Frc consts  --      0.8959                 0.9019                 1.4301
 IR Inten    --     12.0259                 4.4831                 4.3005

                     37                     38                     39
                      A                      A                      A
 Frequencies --   1129.9497              1160.9734              1170.5407
 Red. masses --      1.3089                 1.2498                 1.5612
 Frc consts  --      0.9847                 0.9925                 1.2603
 IR Inten    --     12.2867                 7.2625                14.2270

                     40                     41                     42
                      A                      A                      A
 Frequencies --   1181.9179              1202.2814              1239.2882
 Red. masses --      1.9558                 1.1955                 2.1235
 Frc consts  --      1.6097                 1.0181                 1.9215
 IR Inten    --     72.0594                 6.3250                 2.5897

                     43                     44                     45
                      A                      A                      A
 Frequencies --   1254.3372              1261.6032              1347.9965
 Red. masses --      1.5245                 1.2903                 1.5336
 Frc consts  --      1.4133                 1.2100                 1.6419
 IR Inten    --      0.8798                 8.6093                 9.4666

                     46                     47                     48
                      A                      A                      A
 Frequencies --   1356.6990              1360.6593              1381.6243
 Red. masses --      1.8284                 1.8636                 1.7863
 Frc consts  --      1.9828                 2.0328                 2.0090
 IR Inten    --     10.7454                50.3678                 5.5511

                     49                     50                     51
                      A                      A                      A
 Frequencies --   1384.8565              1399.7119              1412.2318
 Red. masses --      1.8322                 1.4467                 1.7343
 Frc consts  --      2.0703                 1.6699                 2.0379
 IR Inten    --      2.1752                18.8952                 1.4257

                     52                     53                     54
                      A                      A                      A
 Frequencies --   1426.4260              1455.4491              1460.2984
 Red. masses --      1.0903                 1.0419                 1.0915
 Frc consts  --      1.3070                 1.3004                 1.3713
 IR Inten    --      9.8854                 9.7217                 8.3017

                     55                     56                     57
                      A                      A                      A
 Frequencies --   1465.1086              1666.3375              1719.5936
 Red. masses --      1.0826                 8.2639                 6.6393
 Frc consts  --      1.3692                13.5196                11.5671
 IR Inten    --     10.3662                13.2177                11.6955

                     58                     59                     60
                      A                      A                      A
 Frequencies --   1724.2459              1849.1812              3038.3729
 Red. masses --      8.0191                12.5482                 1.0389
 Frc consts  --     14.0467                25.2808                 5.6506
 IR Inten    --     68.7701               259.1772                39.2236

                     61                     62                     63
                      A                      A                      A
 Frequencies --   3046.6607              3049.9225              3059.1618
 Red. masses --      1.0649                 1.0649                 1.0679
 Frc consts  --      5.8240                 5.8365                 5.8885
 IR Inten    --     30.7760                10.7248                 7.6578

                     64                     65                     66
                      A                      A                      A
 Frequencies --   3103.8533              3106.5629              3117.4528
 Red. masses --      1.0987                 1.1013                 1.1021
 Frc consts  --      6.2363                 6.2621                 6.3109
 IR Inten    --      1.0630                16.0332                15.1222

                     67                     68                     69
                      A                      A                      A
 Frequencies --   3131.8903              3157.4705              3206.1765
 Red. masses --      1.0986                 1.1036                 1.0874
 Frc consts  --      6.3491                 6.4822                 6.5858
 IR Inten    --     10.6011                15.0762                 2.4249

                     70                     71                     72
                      A                      A                      A
 Frequencies --   3214.3441              3228.8303              3249.9433
 Red. masses --      1.0936                 1.1006                 1.0988
 Frc consts  --      6.6570                 6.7601                 6.8376
 IR Inten    --     20.9874                13.7406                 2.0169

 - Thermochemistry -
 -------------------
 Temperature   298.150 Kelvin.  Pressure   1.00000 Atm.
 Atom     1 has atomic number  6 and mass  12.00000

 Molecular mass:   196.06549 amu.
 Principal axes and moments of inertia in atomic units:
                           1         2         3
     Eigenvalues --  2035.351023114.739664347.85201
           X            0.99696  -0.07782   0.00347
           Y            0.07780   0.99696   0.00403
           Z           -0.00378  -0.00375   0.99999
 This molecule is an asymmetric top.
 Rotational symmetry number  1.
 Warning -- assumption of classical behavior for rotation
           may cause significant error
 Rotational temperatures (Kelvin)      0.04255     0.02781     0.01992
 Rotational constants (GHZ):           0.88670     0.57942     0.41509
    1 imaginary frequencies ignored.
 Zero-point vibrational energy     557673.5 (Joules/Mol)
                                  133.28716 (Kcal/Mol)
 Warning -- explicit consideration of  18 degrees of freedom as
           vibrations may cause significant error
 Vibrational temperatures:     50.42    90.87   129.64   179.65   234.32
          (Kelvin)            246.05   282.38   295.49   397.98   441.90
                              500.34   557.08   582.20   625.33   774.22
                              783.78   797.31   830.41   960.44  1014.12
                             1023.96  1049.29  1167.64  1229.47  1272.97
                             1288.59  1313.09  1328.34  1357.67  1376.12
                             1381.93  1426.85  1487.45  1501.77  1535.66
                             1625.75  1670.38  1684.15  1700.52  1729.81
                             1783.06  1804.71  1815.17  1939.47  1951.99
                             1957.69  1987.85  1992.50  2013.87  2031.89
                             2052.31  2094.07  2101.04  2107.96  2397.49
                             2474.11  2480.81  2660.56  4371.54  4383.47
                             4388.16  4401.45  4465.75  4469.65  4485.32
                             4506.09  4542.90  4612.97  4624.72  4645.57
                             4675.94

 Zero-point correction=                           0.212407 (Hartree/Particle)
 Thermal correction to Energy=                    0.224868
 Thermal correction to Enthalpy=                  0.225813
 Thermal correction to Gibbs Free Energy=         0.172802
 Sum of electronic and zero-point Energies=           -961.490352
 Sum of electronic and thermal Energies=              -961.477890
 Sum of electronic and thermal Enthalpies=            -961.476945
 Sum of electronic and thermal Free Energies=         -961.529956

                     E (Thermal)             CV                S
                      KCal/Mol        Cal/Mol-Kelvin    Cal/Mol-Kelvin
 Total                  141.107             47.153            111.571
 Electronic               0.000              0.000              0.000
 Translational            0.889              2.981             41.725
 Rotational               0.889              2.981             31.689
 Vibrational            139.330             41.192             38.157
 Vibration     1          0.594              1.982              5.521
 Vibration     2          0.597              1.972              4.356
 Vibration     3          0.602              1.956              3.658
 Vibration     4          0.610              1.928              3.024
 Vibration     5          0.623              1.888              2.516
 Vibration     6          0.626              1.878              2.424
 Vibration     7          0.636              1.845              2.168
 Vibration     8          0.640              1.832              2.084
 Vibration     9          0.678              1.717              1.555
 Vibration    10          0.697              1.660              1.378
 Vibration    11          0.725              1.580              1.176
 Vibration    12          0.756              1.498              1.011
 Vibration    13          0.770              1.460              0.946
 Vibration    14          0.795              1.395              0.844
 Vibration    15          0.893              1.166              0.569
 Vibration    16          0.900              1.151              0.555
 Vibration    17          0.910              1.131              0.536
 Vibration    18          0.934              1.081              0.491

 Normal termination of Gaussian 16 at Sat Dec 30 20:56:20 2023.
