 Gaussian 16, Revision C.01,
 Gaussian 16:  ES64L-G16RevC.01  3-Jul-2019

 -----------------------------------------------------------
 # wb97xd def2svp scrf=(iefpcm,solvent=toluene) freq=noraman
 -----------------------------------------------------------

 ------------------------
 TS-898_opt_sqm_reopt.out
 ------------------------
 Symbolic Z-matrix:
 Charge =  0 Multiplicity = 1

                         Standard orientation:
 ---------------------------------------------------------------------
 Center     Atomic      Atomic             Coordinates (Angstroms)
 Number     Number       Type             X           Y           Z
 ---------------------------------------------------------------------
      1          6           0        0.588991   -0.475451    0.152328
      2          6           0        1.831612    0.042006   -0.367302
      3          8           0        1.958434    0.881035   -1.266802
      4          6           0       -0.650988   -0.022988   -0.353122
      5          6           0       -0.683493    2.142562    1.283128
      6          1           0       -1.012542    2.550462    2.247788
      7          1           0        0.366776    1.821739    1.352328
      8          1           0       -0.769811    2.914942    0.510288
      9          7           0       -1.474556    0.976084    0.900068
     10          1           0       -1.585297    0.327664    1.681628
     11          1           0       -2.414885    1.218066    0.580928
     12         17           0       -1.998961   -1.302745   -0.429472
     13          6           0       -0.763416    0.838562   -1.584122
     14          1           0       -0.127724    1.725320   -1.491492
     15          1           0       -0.383137    0.275891   -2.446392
     16          1           0       -1.811355    1.111164   -1.772452
     17          6           0        0.610579   -1.439241    1.321178
     18          1           0       -0.393582   -1.834499    1.529788
     19          1           0        1.247256   -2.318833    1.132848
     20          1           0        0.983430   -0.979842    2.255808
     21          6           0        3.107581   -0.515327    0.264148
     22          1           0        3.968032   -0.021499   -0.204192
     23          1           0        3.136571   -0.342777    1.351248
     24          1           0        3.187838   -1.602718    0.109458
 ---------------------------------------------------------------------

 SCF Done:  E(RwB97XD) =  -864.737843956     A.U. after   14 cycles

 The electronic state is 1-A.
 Alpha  occ. eigenvalues -- -101.66008 -19.18330 -14.53294 -10.40653 -10.35277
 Alpha  occ. eigenvalues --  -10.34214 -10.29622 -10.28403 -10.27307 -10.25550
 Alpha  occ. eigenvalues --   -9.56778  -7.32096  -7.31232  -7.31200  -1.07209
 Alpha  occ. eigenvalues --   -1.06383  -0.94769  -0.86176  -0.83060  -0.80245
 Alpha  occ. eigenvalues --   -0.78770  -0.73327  -0.67036  -0.65296  -0.60127
 Alpha  occ. eigenvalues --   -0.58360  -0.56003  -0.53705  -0.51968  -0.50907
 Alpha  occ. eigenvalues --   -0.49767  -0.49438  -0.47963  -0.46957  -0.46330
 Alpha  occ. eigenvalues --   -0.44967  -0.44101  -0.44047  -0.42679  -0.40558
 Alpha  occ. eigenvalues --   -0.38425  -0.37841  -0.28808  -0.25257
 Alpha virt. eigenvalues --    0.08286   0.08753   0.11083   0.14211   0.15419
 Alpha virt. eigenvalues --    0.16557   0.17185   0.19226   0.19765   0.20875
 Alpha virt. eigenvalues --    0.21500   0.22706   0.22947   0.24416   0.24952

 Mulliken charges:
               1
     1  C   -0.178029
     2  C    0.015613
     3  O   -0.353685
     4  C   -0.246944
     5  C    0.015695
     6  H    0.075705
     7  H    0.092139
     8  H    0.080391
     9  N   -0.147574
    10  H    0.176040
    11  H    0.174767
    12  Cl  -0.158551
    13  C    0.101503
    14  H    0.067545
    15  H    0.072618
    16  H    0.024646
    17  C    0.029546
    18  H    0.018038
    19  H    0.030528
    20  H    0.018174
    21  C   -0.021094
    22  H    0.034064
    23  H    0.032240
    24  H    0.046624
 Sum of Mulliken charges =  -0.00000

 Dipole moment (field-independent basis, Debye):
    X=             -4.9605    Y=              2.7826    Z=              4.8835  Tot=              7.4965
 Quadrupole moment (field-independent basis, Debye-Ang):
   XX=            -70.4246   YY=            -66.8929   ZZ=            -67.6875
   XY=            -10.8632   XZ=              1.0722   YZ=              4.9401

  Exact polarizability:     139.236      -0.994     106.162      -1.011      -5.160     100.167
 Approx polarizability:     127.137       5.694     107.486      -3.507      -6.623     101.614

 ******    1 imaginary frequencies (negative Signs) ******

                      1                      2                      3
                      A                      A                      A
 Frequencies --   -327.6148                61.2852                70.8513
 Red. masses --      5.5916                 2.1573                 4.2964
 Frc consts  --      0.3536                 0.0048                 0.0127
 IR Inten    --    375.6037                 4.0415                 0.9684

                      4                      5                      6
                      A                      A                      A
 Frequencies --    104.9094               107.9947               158.1994
 Red. masses --      1.3401                 2.0549                 1.7822
 Frc consts  --      0.0087                 0.0141                 0.0263
 IR Inten    --      3.8103                 2.5079                 4.7028

                      7                      8                      9
                      A                      A                      A
 Frequencies --    191.3735               211.7910               217.2016
 Red. masses --      1.4084                 1.5959                 1.9532
 Frc consts  --      0.0304                 0.0422                 0.0543
 IR Inten    --      1.7865                 1.2121                 2.0914

                     10                     11                     12
                      A                      A                      A
 Frequencies --    233.7308               280.1666               301.4535
 Red. masses --      2.8931                 1.3840                 2.4214
 Frc consts  --      0.0931                 0.0640                 0.1296
 IR Inten    --     23.4491                 1.2762                 3.3392

                     13                     14                     15
                      A                      A                      A
 Frequencies --    330.5854               354.0213               364.9509
 Red. masses --      2.9601                 3.5627                 2.9866
 Frc consts  --      0.1906                 0.2631                 0.2344
 IR Inten    --      3.6825                32.6026                 5.5951

                     16                     17                     18
                      A                      A                      A
 Frequencies --    371.6222               466.7235               500.6464
 Red. masses --      3.4188                 3.1939                 3.0927
 Frc consts  --      0.2782                 0.4099                 0.4567
 IR Inten    --     16.8848                24.4680                77.1437

                     19                     20                     21
                      A                      A                      A
 Frequencies --    566.2551               614.1053               658.9712
 Red. masses --      3.5944                 3.2454                 2.8419
 Frc consts  --      0.6790                 0.7211                 0.7271
 IR Inten    --     83.7271                11.6798                43.3625

                     22                     23                     24
                      A                      A                      A
 Frequencies --    717.6642               776.5212               939.0035
 Red. masses --      2.1415                 1.8362                 1.8287
 Frc consts  --      0.6498                 0.6524                 0.9500
 IR Inten    --     29.0670               109.0083                48.7617

                     25                     26                     27
                      A                      A                      A
 Frequencies --    974.1897              1005.4031              1018.8045
 Red. masses --      1.4957                 1.0995                 1.5832
 Frc consts  --      0.8364                 0.6549                 0.9682
 IR Inten    --     74.2753                21.7466                 2.1086

                     28                     29                     30
                      A                      A                      A
 Frequencies --   1040.8228              1049.0241              1057.1677
 Red. masses --      1.4710                 1.5612                 1.5098
 Frc consts  --      0.9389                 1.0122                 0.9941
 IR Inten    --     38.3012                37.2828                 1.2713

                     31                     32                     33
                      A                      A                      A
 Frequencies --   1081.6303              1103.7081              1146.6682
 Red. masses --      1.6025                 2.9822                 2.5691
 Frc consts  --      1.1046                 2.1404                 1.9902
 IR Inten    --     49.6773                56.3609                36.3891

                     34                     35                     36
                      A                      A                      A
 Frequencies --   1167.7959              1237.6145              1319.3856
 Red. masses --      3.0326                 1.3820                 1.3392
 Frc consts  --      2.4367                 1.2472                 1.3735
 IR Inten    --      2.3848                50.4067                 4.2439

                     37                     38                     39
                      A                      A                      A
 Frequencies --   1346.5637              1378.8696              1400.6105
 Red. masses --      1.5915                 1.9299                 1.4648
 Frc consts  --      1.7002                 2.1619                 1.6930
 IR Inten    --     33.2583                14.3345               164.8151

                     40                     41                     42
                      A                      A                      A
 Frequencies --   1408.1777              1417.7644              1433.1691
 Red. masses --      1.5221                 1.1140                 1.2440
 Frc consts  --      1.7784                 1.3193                 1.5054
 IR Inten    --     93.7612                13.2765                93.6986

                     43                     44                     45
                      A                      A                      A
 Frequencies --   1438.1341              1449.3413              1457.8745
 Red. masses --      1.0572                 1.3648                 1.0764
 Frc consts  --      1.2883                 1.6892                 1.3480
 IR Inten    --     27.6443               116.6323                38.6524

                     46                     47                     48
                      A                      A                      A
 Frequencies --   1464.4001              1479.5018              1480.3205
 Red. masses --      1.1623                 1.1105                 1.0495
 Frc consts  --      1.4685                 1.4322                 1.3550
 IR Inten    --     41.7182                42.3444                31.0945

                     49                     50                     51
                      A                      A                      A
 Frequencies --   1487.0787              1495.1448              1614.5939
 Red. masses --      1.0683                 1.4297                 1.0944
 Frc consts  --      1.3919                 1.8831                 1.6810
 IR Inten    --     39.4878               331.2294                48.4016

                     52                     53                     54
                      A                      A                      A
 Frequencies --   1730.9323              3011.1510              3050.9178
 Red. masses --      9.8320                 1.0480                 1.0375
 Frc consts  --     17.3560                 5.5986                 5.6900
 IR Inten    --    364.9710                71.5802                15.1730

                     55                     56                     57
                      A                      A                      A
 Frequencies --   3069.6473              3076.7173              3089.7842
 Red. masses --      1.0348                 1.0394                 1.0945
 Frc consts  --      5.7450                 5.7968                 6.1564
 IR Inten    --     25.4883                21.4568                29.5616

                     58                     59                     60
                      A                      A                      A
 Frequencies --   3140.7584              3146.3312              3174.6937
 Red. masses --      1.1022                 1.0990                 1.1061
 Frc consts  --      6.4056                 6.4101                 6.5684
 IR Inten    --     13.5318                15.4919                 0.3418

                     61                     62                     63
                      A                      A                      A
 Frequencies --   3179.5814              3181.9699              3201.3691
 Red. masses --      1.1059                 1.1034                 1.1077
 Frc consts  --      6.5871                 6.5823                 6.6889
 IR Inten    --     14.2375                 6.2396                 4.0850

                     64                     65                     66
                      A                      A                      A
 Frequencies --   3209.3646              3513.7951              3597.1239
 Red. masses --      1.1034                 1.0534                 1.0968
 Frc consts  --      6.6962                 7.6629                 8.3618
 IR Inten    --      0.0250                50.4176                53.2915

 - Thermochemistry -
 -------------------
 Temperature   298.150 Kelvin.  Pressure   1.00000 Atm.
 Atom     1 has atomic number  6 and mass  12.00000

 Molecular mass:   163.07639 amu.
 Principal axes and moments of inertia in atomic units:
                           1         2         3
     Eigenvalues --  1302.983322208.654662436.84951
           X            0.99631  -0.08409   0.01691
           Y            0.08482   0.99522  -0.04842
           Z           -0.01276   0.04968   0.99868
 This molecule is an asymmetric top.
 Rotational symmetry number  1.
 Warning -- assumption of classical behavior for rotation
           may cause significant error
 Rotational temperatures (Kelvin)      0.06647     0.03922     0.03554
 Rotational constants (GHZ):           1.38508     0.81712     0.74060
    1 imaginary frequencies ignored.
 Zero-point vibrational energy     537888.4 (Joules/Mol)
                                  128.55842 (Kcal/Mol)
 Warning -- explicit consideration of  19 degrees of freedom as
           vibrations may cause significant error
 Vibrational temperatures:     88.18   101.94   150.94   155.38   227.61
          (Kelvin)            275.34   304.72   312.50   336.29   403.10
                              433.72   475.64   509.36   525.08   534.68
                              671.51   720.32   814.71   883.56   948.11
                             1032.56  1117.24  1351.02  1401.64  1446.55
                             1465.83  1497.51  1509.31  1521.03  1556.22
                             1587.99  1649.80  1680.20  1780.65  1898.30
                             1937.40  1983.89  2015.17  2026.05  2039.85
                             2062.01  2069.15  2085.28  2097.56  2106.95
                             2128.67  2129.85  2139.57  2151.18  2323.04
                             2490.43  4332.37  4389.59  4416.54  4426.71
                             4445.51  4518.85  4526.87  4567.68  4574.71
                             4578.15  4606.06  4617.56  5055.57  5175.46

 Zero-point correction=                           0.204871 (Hartree/Particle)
 Thermal correction to Energy=                    0.217416
 Thermal correction to Enthalpy=                  0.218360
 Thermal correction to Gibbs Free Energy=         0.166455
 Sum of electronic and zero-point Energies=           -864.532973
 Sum of electronic and thermal Energies=              -864.520428
 Sum of electronic and thermal Enthalpies=            -864.519484
 Sum of electronic and thermal Free Energies=         -864.571389

                     E (Thermal)             CV                S
                      KCal/Mol        Cal/Mol-Kelvin    Cal/Mol-Kelvin
 Total                  136.430             44.997            109.244
 Electronic               0.000              0.000              0.000
 Translational            0.889              2.981             41.176
 Rotational               0.889              2.981             30.329
 Vibrational            134.653             39.035             37.739
 Vibration     1          0.597              1.973              4.415
 Vibration     2          0.598              1.968              4.130
 Vibration     3          0.605              1.945              3.361
 Vibration     4          0.606              1.943              3.305
 Vibration     5          0.621              1.893              2.571
 Vibration     6          0.634              1.852              2.214
 Vibration     7          0.643              1.823              2.028
 Vibration     8          0.646              1.815              1.982
 Vibration     9          0.654              1.789              1.850
 Vibration    10          0.680              1.710              1.533
 Vibration    11          0.693              1.671              1.409
 Vibration    12          0.713              1.614              1.257
 Vibration    13          0.730              1.567              1.148
 Vibration    14          0.738              1.544              1.101
 Vibration    15          0.743              1.530              1.073
 Vibration    16          0.824              1.324              0.747
 Vibration    17          0.856              1.249              0.657
 Vibration    18          0.922              1.104              0.511
 Vibration    19          0.974              1.002              0.426

 Optimization completed.
    -- Stationary point found.
 Normal termination of Gaussian 16 at Sat Dec 30 21:04:24 2023.
