 Gaussian 16, Revision C.01,
 Gaussian 16:  ES64L-G16RevC.01  3-Jul-2019

 -----------------------------------------------------------
 # wb97xd def2svp scrf=(iefpcm,solvent=toluene) freq=noraman
 -----------------------------------------------------------

 -----------------
 TS-898_opt_hf.out
 -----------------
 Symbolic Z-matrix:
 Charge =  0 Multiplicity = 1

                         Standard orientation:
 ---------------------------------------------------------------------
 Center     Atomic      Atomic             Coordinates (Angstroms)
 Number     Number       Type             X           Y           Z
 ---------------------------------------------------------------------
      1          6           0        0.589038   -0.475311    0.152439
      2          6           0        1.831659    0.042108   -0.367251
      3          8           0        1.958449    0.881048   -1.266831
      4          6           0       -0.650941   -0.022981   -0.353111
      5          6           0       -0.683901    2.142639    1.283049
      6          1           0       -1.013151    2.550529    2.247649
      7          1           0        0.366399    1.821989    1.352389
      8          1           0       -0.770251    2.914969    0.510149
      9          7           0       -1.474731    0.976019    0.899939
     10          1           0       -1.585461    0.327599    1.681509
     11          1           0       -2.415071    1.217820    0.580669
     12         17           0       -1.998772   -1.302950   -0.429491
     13          6           0       -0.763401    0.838459   -1.584171
     14          1           0       -0.127941    1.725379   -1.491541
     15          1           0       -0.382901    0.275819   -2.446371
     16          1           0       -1.811381    1.110850   -1.772631
     17          6           0        0.610658   -1.439081    1.321299
     18          1           0       -0.393562   -1.834041    1.530229
     19          1           0        1.246998   -2.318881    1.132809
     20          1           0        0.983938   -0.979781    2.255799
     21          6           0        3.107628   -0.515182    0.264239
     22          1           0        3.187848   -1.602582    0.109639
     23          1           0        3.968079   -0.021412   -0.204191
     24          1           0        3.136659   -0.342532    1.351319
 ---------------------------------------------------------------------

 SCF Done:  E(RwB97XD) =  -864.737844004     A.U. after   14 cycles

 The electronic state is 1-A.
 Alpha  occ. eigenvalues -- -101.66007 -19.18330 -14.53295 -10.40653 -10.35277
 Alpha  occ. eigenvalues --  -10.34213 -10.29622 -10.28403 -10.27307 -10.25549
 Alpha  occ. eigenvalues --   -9.56777  -7.32095  -7.31231  -7.31199  -1.07209
 Alpha  occ. eigenvalues --   -1.06384  -0.94768  -0.86176  -0.83061  -0.80246
 Alpha  occ. eigenvalues --   -0.78770  -0.73327  -0.67036  -0.65296  -0.60127
 Alpha  occ. eigenvalues --   -0.58360  -0.56003  -0.53705  -0.51968  -0.50907
 Alpha  occ. eigenvalues --   -0.49768  -0.49438  -0.47963  -0.46957  -0.46330
 Alpha  occ. eigenvalues --   -0.44968  -0.44101  -0.44047  -0.42679  -0.40558
 Alpha  occ. eigenvalues --   -0.38425  -0.37841  -0.28808  -0.25256
 Alpha virt. eigenvalues --    0.08287   0.08752   0.11082   0.14210   0.15418
 Alpha virt. eigenvalues --    0.16556   0.17186   0.19226   0.19765   0.20876
 Alpha virt. eigenvalues --    0.21499   0.22706   0.22946   0.24416   0.24953

 Mulliken charges:
               1
     1  C   -0.178021
     2  C    0.015600
     3  O   -0.353676
     4  C   -0.246975
     5  C    0.015703
     6  H    0.075711
     7  H    0.092133
     8  H    0.080394
     9  N   -0.147564
    10  H    0.176043
    11  H    0.174771
    12  Cl  -0.158580
    13  C    0.101515
    14  H    0.067532
    15  H    0.072625
    16  H    0.024650
    17  C    0.029573
    18  H    0.018028
    19  H    0.030527
    20  H    0.018174
    21  C   -0.021085
    22  H    0.046613
    23  H    0.034067
    24  H    0.032241
 Sum of Mulliken charges =  -0.00000

 Dipole moment (field-independent basis, Debye):
    X=             -4.9612    Y=              2.7829    Z=              4.8832  Tot=              7.4969
 Quadrupole moment (field-independent basis, Debye-Ang):
   XX=            -70.4230   YY=            -66.8935   ZZ=            -67.6879
   XY=            -10.8644   XZ=              1.0722   YZ=              4.9397

  Exact polarizability:     139.238      -0.991     106.163      -1.010      -5.160     100.167
 Approx polarizability:     127.137       5.696     107.486      -3.506      -6.623     101.614

 ******    1 imaginary frequencies (negative Signs) ******

                      1                      2                      3
                      A                      A                      A
 Frequencies --   -327.5960                60.9513                70.8591
 Red. masses --      5.5918                 2.1256                 4.3272
 Frc consts  --      0.3536                 0.0047                 0.0128
 IR Inten    --    375.5396                 3.9851                 1.0087

                      4                      5                      6
                      A                      A                      A
 Frequencies --    104.5044               108.0876               158.2304
 Red. masses --      1.3512                 2.0523                 1.7824
 Frc consts  --      0.0087                 0.0141                 0.0263
 IR Inten    --      3.8400                 2.4841                 4.7041

                      7                      8                      9
                      A                      A                      A
 Frequencies --    191.2760               211.8799               217.2378
 Red. masses --      1.4046                 1.6086                 1.9401
 Frc consts  --      0.0303                 0.0425                 0.0539
 IR Inten    --      1.7436                 1.2452                 2.0920

                     10                     11                     12
                      A                      A                      A
 Frequencies --    233.6808               280.5171               301.5569
 Red. masses --      2.9031                 1.3914                 2.4030
 Frc consts  --      0.0934                 0.0645                 0.1287
 IR Inten    --     23.4569                 1.2858                 3.3348

                     13                     14                     15
                      A                      A                      A
 Frequencies --    330.6843               354.0527               365.0722
 Red. masses --      2.9484                 3.5750                 2.9707
 Frc consts  --      0.1900                 0.2640                 0.2333
 IR Inten    --      3.6633                32.7198                 5.4365

                     16                     17                     18
                      A                      A                      A
 Frequencies --    371.5503               466.7161               500.6562
 Red. masses --      3.4268                 3.1941                 3.0926
 Frc consts  --      0.2787                 0.4099                 0.4567
 IR Inten    --     16.9481                24.5278                77.1436

                     19                     20                     21
                      A                      A                      A
 Frequencies --    566.2534               614.1240               658.9735
 Red. masses --      3.5939                 3.2456                 2.8423
 Frc consts  --      0.6790                 0.7212                 0.7272
 IR Inten    --     83.7797                11.6747                43.3579

                     22                     23                     24
                      A                      A                      A
 Frequencies --    717.6768               776.5548               938.9914
 Red. masses --      2.1416                 1.8361                 1.8281
 Frc consts  --      0.6499                 0.6524                 0.9497
 IR Inten    --     29.0851               109.0232                48.9717

                     25                     26                     27
                      A                      A                      A
 Frequencies --    974.1657              1005.4039              1018.7923
 Red. masses --      1.4962                 1.0995                 1.5831
 Frc consts  --      0.8366                 0.6548                 0.9681
 IR Inten    --     74.1727                21.7038                 2.1067

                     28                     29                     30
                      A                      A                      A
 Frequencies --   1040.8795              1049.0549              1057.1539
 Red. masses --      1.4697                 1.5622                 1.5100
 Frc consts  --      0.9382                 1.0130                 0.9943
 IR Inten    --     38.0648                37.4629                 1.2691

                     31                     32                     33
                      A                      A                      A
 Frequencies --   1081.6302              1103.7144              1146.6793
 Red. masses --      1.6025                 2.9822                 2.5692
 Frc consts  --      1.1046                 2.1404                 1.9904
 IR Inten    --     49.6500                56.3380                36.4211

                     34                     35                     36
                      A                      A                      A
 Frequencies --   1167.8166              1237.6289              1319.3881
 Red. masses --      3.0314                 1.3820                 1.3392
 Frc consts  --      2.4358                 1.2472                 1.3735
 IR Inten    --      2.3839                50.4019                 4.2491

                     37                     38                     39
                      A                      A                      A
 Frequencies --   1346.5632              1378.8989              1400.6715
 Red. masses --      1.5915                 1.9323                 1.4628
 Frc consts  --      1.7002                 2.1646                 1.6908
 IR Inten    --     33.3009                14.1927               164.2841

                     40                     41                     42
                      A                      A                      A
 Frequencies --   1408.1599              1417.8802              1433.2496
 Red. masses --      1.5272                 1.1125                 1.2432
 Frc consts  --      1.7842                 1.3178                 1.5047
 IR Inten    --     96.0965                12.4093                93.2878

                     43                     44                     45
                      A                      A                      A
 Frequencies --   1438.1374              1449.3427              1457.8788
 Red. masses --      1.0572                 1.3636                 1.0765
 Frc consts  --      1.2883                 1.6877                 1.3481
 IR Inten    --     27.6094               115.8799                38.7279

                     46                     47                     48
                      A                      A                      A
 Frequencies --   1464.3880              1479.4553              1480.3040
 Red. masses --      1.1611                 1.1137                 1.0472
 Frc consts  --      1.4670                 1.4362                 1.3520
 IR Inten    --     41.1815                45.2045                28.4758

                     49                     50                     51
                      A                      A                      A
 Frequencies --   1487.0918              1495.1390              1614.5987
 Red. masses --      1.0683                 1.4312                 1.0945
 Frc consts  --      1.3919                 1.8850                 1.6810
 IR Inten    --     39.5019               331.8743                48.4034

                     52                     53                     54
                      A                      A                      A
 Frequencies --   1730.9596              3011.1975              3050.9274
 Red. masses --      9.8321                 1.0480                 1.0375
 Frc consts  --     17.3568                 5.5987                 5.6900
 IR Inten    --    364.9652                71.5727                15.1788

                     55                     56                     57
                      A                      A                      A
 Frequencies --   3069.6669              3076.6818              3089.7994
 Red. masses --      1.0348                 1.0394                 1.0945
 Frc consts  --      5.7450                 5.7968                 6.1565
 IR Inten    --     25.4863                21.4491                29.5653

                     58                     59                     60
                      A                      A                      A
 Frequencies --   3140.8023              3146.2787              3174.7320
 Red. masses --      1.1022                 1.0990                 1.1061
 Frc consts  --      6.4058                 6.4099                 6.5686
 IR Inten    --     13.5308                15.5042                 0.3391

                     61                     62                     63
                      A                      A                      A
 Frequencies --   3179.5103              3181.9061              3201.3220
 Red. masses --      1.1059                 1.1034                 1.1077
 Frc consts  --      6.5869                 6.5820                 6.6888
 IR Inten    --     14.2367                 6.2358                 4.0848

                     64                     65                     66
                      A                      A                      A
 Frequencies --   3209.4225              3513.7182              3597.0419
 Red. masses --      1.1034                 1.0534                 1.0968
 Frc consts  --      6.6963                 7.6625                 8.3614
 IR Inten    --      0.0258                50.4130                53.2963

 - Thermochemistry -
 -------------------
 Temperature   298.150 Kelvin.  Pressure   1.00000 Atm.
 Atom     1 has atomic number  6 and mass  12.00000

 Molecular mass:   163.07639 amu.
 Principal axes and moments of inertia in atomic units:
                           1         2         3
     Eigenvalues --  1303.022832208.664172436.87718
           X            0.99631  -0.08410   0.01691
           Y            0.08483   0.99522  -0.04843
           Z           -0.01276   0.04969   0.99868
 This molecule is an asymmetric top.
 Rotational symmetry number  1.
 Warning -- assumption of classical behavior for rotation
           may cause significant error
 Rotational temperatures (Kelvin)      0.06647     0.03922     0.03554
 Rotational constants (GHZ):           1.38504     0.81712     0.74060
    1 imaginary frequencies ignored.
 Zero-point vibrational energy     537889.6 (Joules/Mol)
                                  128.55870 (Kcal/Mol)
 Warning -- explicit consideration of  19 degrees of freedom as
           vibrations may cause significant error
 Vibrational temperatures:     87.70   101.95   150.36   155.51   227.66
          (Kelvin)            275.20   304.85   312.56   336.21   403.60
                              433.87   475.78   509.40   525.26   534.58
                              671.50   720.33   814.71   883.59   948.12
                             1032.58  1117.29  1351.00  1401.61  1446.55
                             1465.81  1497.59  1509.36  1521.01  1556.22
                             1588.00  1649.82  1680.23  1780.67  1898.31
                             1937.40  1983.93  2015.25  2026.03  2040.01
                             2062.13  2069.16  2085.28  2097.56  2106.93
                             2128.61  2129.83  2139.59  2151.17  2323.05
                             2490.46  4332.44  4389.60  4416.57  4426.66
                             4445.53  4518.91  4526.79  4567.73  4574.61
                             4578.05  4605.99  4617.64  5055.46  5175.34

 Zero-point correction=                           0.204871 (Hartree/Particle)
 Thermal correction to Energy=                    0.217417
 Thermal correction to Enthalpy=                  0.218361
 Thermal correction to Gibbs Free Energy=         0.166449
 Sum of electronic and zero-point Energies=           -864.532973
 Sum of electronic and thermal Energies=              -864.520427
 Sum of electronic and thermal Enthalpies=            -864.519483
 Sum of electronic and thermal Free Energies=         -864.571395

                     E (Thermal)             CV                S
                      KCal/Mol        Cal/Mol-Kelvin    Cal/Mol-Kelvin
 Total                  136.431             44.996            109.256
 Electronic               0.000              0.000              0.000
 Translational            0.889              2.981             41.176
 Rotational               0.889              2.981             30.329
 Vibrational            134.653             39.034             37.752
 Vibration     1          0.597              1.973              4.426
 Vibration     2          0.598              1.968              4.129
 Vibration     3          0.605              1.946              3.369
 Vibration     4          0.606              1.943              3.303
 Vibration     5          0.621              1.893              2.571
 Vibration     6          0.634              1.852              2.215
 Vibration     7          0.643              1.823              2.027
 Vibration     8          0.646              1.815              1.982
 Vibration     9          0.654              1.789              1.850
 Vibration    10          0.680              1.710              1.531
 Vibration    11          0.694              1.671              1.408
 Vibration    12          0.713              1.614              1.257
 Vibration    13          0.730              1.567              1.148
 Vibration    14          0.738              1.544              1.100
 Vibration    15          0.743              1.531              1.073
 Vibration    16          0.824              1.324              0.747
 Vibration    17          0.856              1.249              0.656
 Vibration    18          0.922              1.104              0.511
 Vibration    19          0.974              1.002              0.426

 Normal termination of Gaussian 16 at Sat Dec 30 21:02:33 2023.
