 Gaussian 16, Revision C.01,
 Gaussian 16:  ES64L-G16RevC.01  3-Jul-2019

 -----------------------------------------------------------
 # wb97xd def2svp scrf=(iefpcm,solvent=toluene) freq=noraman
 -----------------------------------------------------------

 ---------------------
 TS-898_opt_sqm_re.out
 ---------------------
 Symbolic Z-matrix:
 Charge =  0 Multiplicity = 1

                         Standard orientation:
 ---------------------------------------------------------------------
 Center     Atomic      Atomic             Coordinates (Angstroms)
 Number     Number       Type             X           Y           Z
 ---------------------------------------------------------------------
      1          6           0        0.588969   -0.475461    0.152349
      2          6           0        1.831590    0.042005   -0.367221
      3          8           0        1.958513    0.881125   -1.266631
      4          6           0       -0.651010   -0.023007   -0.353101
      5          6           0       -0.683464    2.142643    1.283009
      6          1           0       -1.011913    2.550214    2.248019
      7          1           0        0.366895    1.821970    1.351469
      8          1           0       -0.770372    2.915243    0.510429
      9          7           0       -1.474617    0.976175    0.900089
     10          1           0       -1.585349    0.327825    1.681649
     11          1           0       -2.414806    1.218078    0.580999
     12         17           0       -1.998973   -1.302754   -0.429461
     13          6           0       -0.763407    0.838513   -1.584131
     14          1           0       -0.128005    1.725461   -1.491361
     15          1           0       -0.382799    0.275932   -2.446311
     16          1           0       -1.811357    1.110916   -1.772641
     17          6           0        0.610546   -1.439351    1.321119
     18          1           0       -0.393605   -1.834708    1.529569
     19          1           0        1.247194   -2.318943    1.132799
     20          1           0        0.983307   -0.979972    2.255809
     21          6           0        3.107609   -0.515378    0.264109
     22          1           0        3.968030   -0.020771   -0.203531
     23          1           0        3.136269   -0.343868    1.351339
     24          1           0        3.188276   -1.602568    0.108229
 ---------------------------------------------------------------------

 SCF Done:  E(RwB97XD) =  -864.737843887     A.U. after   14 cycles

 The electronic state is 1-A.
 Alpha  occ. eigenvalues -- -101.66009 -19.18330 -14.53291 -10.40653 -10.35276
 Alpha  occ. eigenvalues --  -10.34214 -10.29622 -10.28403 -10.27306 -10.25551
 Alpha  occ. eigenvalues --   -9.56779  -7.32097  -7.31233  -7.31201  -1.07209
 Alpha  occ. eigenvalues --   -1.06384  -0.94770  -0.86176  -0.83060  -0.80246
 Alpha  occ. eigenvalues --   -0.78770  -0.73327  -0.67037  -0.65297  -0.60127
 Alpha  occ. eigenvalues --   -0.58359  -0.56003  -0.53705  -0.51968  -0.50907
 Alpha  occ. eigenvalues --   -0.49767  -0.49438  -0.47963  -0.46958  -0.46331
 Alpha  occ. eigenvalues --   -0.44967  -0.44101  -0.44047  -0.42679  -0.40558
 Alpha  occ. eigenvalues --   -0.38426  -0.37841  -0.28808  -0.25258
 Alpha virt. eigenvalues --    0.08285   0.08753   0.11084   0.14213   0.15420
 Alpha virt. eigenvalues --    0.16556   0.17185   0.19229   0.19767   0.20875
 Alpha virt. eigenvalues --    0.21501   0.22706   0.22947   0.24416   0.24950

 Mulliken charges:
               1
     1  C   -0.177999
     2  C    0.015604
     3  O   -0.353692
     4  C   -0.246951
     5  C    0.015667
     6  H    0.075700
     7  H    0.092143
     8  H    0.080391
     9  N   -0.147493
    10  H    0.176014
    11  H    0.174696
    12  Cl  -0.158530
    13  C    0.101521
    14  H    0.067516
    15  H    0.072626
    16  H    0.024656
    17  C    0.029530
    18  H    0.018034
    19  H    0.030530
    20  H    0.018199
    21  C   -0.021110
    22  H    0.034063
    23  H    0.032222
    24  H    0.046660
 Sum of Mulliken charges =  -0.00000

 Dipole moment (field-independent basis, Debye):
    X=             -4.9605    Y=              2.7819    Z=              4.8826  Tot=              7.4956
 Quadrupole moment (field-independent basis, Debye-Ang):
   XX=            -70.4254   YY=            -66.8925   ZZ=            -67.6868
   XY=            -10.8633   XZ=              1.0716   YZ=              4.9402

  Exact polarizability:     139.233      -0.995     106.167      -1.012      -5.159     100.163
 Approx polarizability:     127.135       5.694     107.488      -3.508      -6.621     101.609

 ******    1 imaginary frequencies (negative Signs) ******

                      1                      2                      3
                      A                      A                      A
 Frequencies --   -327.6149                61.1389                70.8405
 Red. masses --      5.5922                 2.1446                 4.2990
 Frc consts  --      0.3536                 0.0047                 0.0127
 IR Inten    --    375.7454                 4.0139                 0.9824

                      4                      5                      6
                      A                      A                      A
 Frequencies --    104.6929               107.8296               158.0690
 Red. masses --      1.3413                 2.0606                 1.7829
 Frc consts  --      0.0087                 0.0141                 0.0262
 IR Inten    --      3.7847                 2.5560                 4.7252

                      7                      8                      9
                      A                      A                      A
 Frequencies --    191.1468               211.7550               217.2307
 Red. masses --      1.4050                 1.5998                 1.9524
 Frc consts  --      0.0302                 0.0423                 0.0543
 IR Inten    --      1.7251                 1.2264                 2.1045

                     10                     11                     12
                      A                      A                      A
 Frequencies --    233.6523               280.4628               301.5059
 Red. masses --      2.9043                 1.3937                 2.3975
 Frc consts  --      0.0934                 0.0646                 0.1284
 IR Inten    --     23.4496                 1.2952                 3.3286

                     13                     14                     15
                      A                      A                      A
 Frequencies --    330.7077               353.9817               365.1001
 Red. masses --      2.9450                 3.5781                 2.9686
 Frc consts  --      0.1898                 0.2642                 0.2331
 IR Inten    --      3.6479                32.7441                 5.4193

                     16                     17                     18
                      A                      A                      A
 Frequencies --    371.5931               466.6147               500.6563
 Red. masses --      3.4271                 3.1905                 3.0931
 Frc consts  --      0.2788                 0.4093                 0.4568
 IR Inten    --     16.9035                24.4379                77.1537

                     19                     20                     21
                      A                      A                      A
 Frequencies --    566.2397               614.1174               658.9285
 Red. masses --      3.5943                 3.2429                 2.8404
 Frc consts  --      0.6790                 0.7206                 0.7266
 IR Inten    --     83.7765                11.6429                43.2696

                     22                     23                     24
                      A                      A                      A
 Frequencies --    717.4181               776.2301               939.0034
 Red. masses --      2.1353                 1.8453                 1.8284
 Frc consts  --      0.6475                 0.6551                 0.9499
 IR Inten    --     28.7788               109.3534                48.9229

                     25                     26                     27
                      A                      A                      A
 Frequencies --    974.1880              1005.0371              1018.8025
 Red. masses --      1.4958                 1.0988                 1.5839
 Frc consts  --      0.8364                 0.6539                 0.9687
 IR Inten    --     74.1401                21.9352                 2.0796

                     28                     29                     30
                      A                      A                      A
 Frequencies --   1040.8328              1049.0454              1057.1633
 Red. masses --      1.4679                 1.5631                 1.5099
 Frc consts  --      0.9369                 1.0135                 0.9942
 IR Inten    --     37.9121                37.6207                 1.2677

                     31                     32                     33
                      A                      A                      A
 Frequencies --   1081.6068              1103.6201              1146.6404
 Red. masses --      1.6010                 2.9913                 2.5705
 Frc consts  --      1.1035                 2.1466                 1.9912
 IR Inten    --     49.9026                56.2016                36.3779

                     34                     35                     36
                      A                      A                      A
 Frequencies --   1167.7942              1237.2921              1319.2316
 Red. masses --      3.0312                 1.3825                 1.3392
 Frc consts  --      2.4356                 1.2470                 1.3732
 IR Inten    --      2.3851                50.1981                 4.2539

                     37                     38                     39
                      A                      A                      A
 Frequencies --   1346.5544              1378.8781              1400.6960
 Red. masses --      1.5909                 1.9337                 1.4630
 Frc consts  --      1.6996                 2.1662                 1.6912
 IR Inten    --     33.1789                14.1809               164.3080

                     40                     41                     42
                      A                      A                      A
 Frequencies --   1408.1786              1417.9348              1433.1865
 Red. masses --      1.5283                 1.1121                 1.2421
 Frc consts  --      1.7855                 1.3174                 1.5032
 IR Inten    --     96.3772                12.0238                92.7494

                     43                     44                     45
                      A                      A                      A
 Frequencies --   1438.1046              1449.3251              1457.8926
 Red. masses --      1.0572                 1.3648                 1.0759
 Frc consts  --      1.2882                 1.6891                 1.3474
 IR Inten    --     27.6298               116.5391                38.3617

                     46                     47                     48
                      A                      A                      A
 Frequencies --   1464.4029              1479.4677              1480.3030
 Red. masses --      1.1625                 1.1113                 1.0486
 Frc consts  --      1.4688                 1.4332                 1.3539
 IR Inten    --     41.9684                43.2014                30.0715

                     49                     50                     51
                      A                      A                      A
 Frequencies --   1487.0466              1495.1407              1614.4370
 Red. masses --      1.0684                 1.4307                 1.0945
 Frc consts  --      1.3920                 1.8844                 1.6807
 IR Inten    --     39.5163               331.7630                48.4140

                     52                     53                     54
                      A                      A                      A
 Frequencies --   1730.9034              3011.0954              3051.0024
 Red. masses --      9.8312                 1.0481                 1.0375
 Frc consts  --     17.3541                 5.5987                 5.6902
 IR Inten    --    364.9430                71.5607                15.1683

                     55                     56                     57
                      A                      A                      A
 Frequencies --   3069.6228              3076.7961              3089.9198
 Red. masses --      1.0348                 1.0394                 1.0944
 Frc consts  --      5.7449                 5.7971                 6.1566
 IR Inten    --     25.4994                21.4300                29.5606

                     58                     59                     60
                      A                      A                      A
 Frequencies --   3140.9801              3146.3711              3174.6722
 Red. masses --      1.1022                 1.0990                 1.1061
 Frc consts  --      6.4066                 6.4102                 6.5683
 IR Inten    --     13.5266                15.4889                 0.3368

                     61                     62                     63
                      A                      A                      A
 Frequencies --   3179.4218              3182.0267              3201.2594
 Red. masses --      1.1059                 1.1034                 1.1077
 Frc consts  --      6.5866                 6.5826                 6.6886
 IR Inten    --     14.2450                 6.2333                 4.0933

                     64                     65                     66
                      A                      A                      A
 Frequencies --   3209.4412              3515.0342              3598.2362
 Red. masses --      1.1034                 1.0534                 1.0969
 Frc consts  --      6.6963                 7.6680                 8.3672
 IR Inten    --      0.0263                50.3623                53.3965

 - Thermochemistry -
 -------------------
 Temperature   298.150 Kelvin.  Pressure   1.00000 Atm.
 Atom     1 has atomic number  6 and mass  12.00000

 Molecular mass:   163.07639 amu.
 Principal axes and moments of inertia in atomic units:
                           1         2         3
     Eigenvalues --  1302.988922208.633702436.94096
           X            0.99631  -0.08410   0.01690
           Y            0.08483   0.99522  -0.04840
           Z           -0.01275   0.04966   0.99869
 This molecule is an asymmetric top.
 Rotational symmetry number  1.
 Warning -- assumption of classical behavior for rotation
           may cause significant error
 Rotational temperatures (Kelvin)      0.06647     0.03922     0.03554
 Rotational constants (GHZ):           1.38508     0.81713     0.74058
    1 imaginary frequencies ignored.
 Zero-point vibrational energy     537891.9 (Joules/Mol)
                                  128.55925 (Kcal/Mol)
 Warning -- explicit consideration of  19 degrees of freedom as
           vibrations may cause significant error
 Vibrational temperatures:     87.97   101.92   150.63   155.14   227.43
          (Kelvin)            275.02   304.67   312.55   336.17   403.52
                              433.80   475.81   509.30   525.30   534.64
                              671.35   720.33   814.69   883.58   948.05
                             1032.20  1116.82  1351.02  1401.64  1446.02
                             1465.83  1497.53  1509.34  1521.02  1556.19
                             1587.86  1649.76  1680.20  1780.19  1898.08
                             1937.39  1983.90  2015.29  2026.05  2040.09
                             2062.04  2069.11  2085.26  2097.58  2106.95
                             2128.62  2129.83  2139.53  2151.17  2322.81
                             2490.38  4332.29  4389.71  4416.50  4426.82
                             4445.71  4519.17  4526.93  4567.65  4574.48
                             4578.23  4605.90  4617.67  5057.35  5177.06

 Zero-point correction=                           0.204872 (Hartree/Particle)
 Thermal correction to Energy=                    0.217418
 Thermal correction to Enthalpy=                  0.218363
 Thermal correction to Gibbs Free Energy=         0.166450
 Sum of electronic and zero-point Energies=           -864.532972
 Sum of electronic and thermal Energies=              -864.520425
 Sum of electronic and thermal Enthalpies=            -864.519481
 Sum of electronic and thermal Free Energies=         -864.571393

                     E (Thermal)             CV                S
                      KCal/Mol        Cal/Mol-Kelvin    Cal/Mol-Kelvin
 Total                  136.432             44.999            109.258
 Electronic               0.000              0.000              0.000
 Translational            0.889              2.981             41.176
 Rotational               0.889              2.981             30.329
 Vibrational            134.655             39.037             37.754
 Vibration     1          0.597              1.973              4.420
 Vibration     2          0.598              1.968              4.130
 Vibration     3          0.605              1.945              3.365
 Vibration     4          0.606              1.943              3.308
 Vibration     5          0.621              1.894              2.573
 Vibration     6          0.634              1.852              2.217
 Vibration     7          0.643              1.823              2.028
 Vibration     8          0.646              1.815              1.982
 Vibration     9          0.654              1.789              1.851
 Vibration    10          0.680              1.710              1.531
 Vibration    11          0.693              1.671              1.409
 Vibration    12          0.713              1.614              1.257
 Vibration    13          0.730              1.567              1.148
 Vibration    14          0.738              1.544              1.100
 Vibration    15          0.743              1.531              1.073
 Vibration    16          0.824              1.324              0.747
 Vibration    17          0.856              1.249              0.656
 Vibration    18          0.922              1.104              0.512
 Vibration    19          0.974              1.002              0.426

 Normal termination of Gaussian 16 at Sat Dec 30 21:02:59 2023.
