 Gaussian 16, Revision C.01,
 Gaussian 16:  ES64L-G16RevC.01  3-Jul-2019

 ----------------------------------------------------------------------
 # wb97xd def2svp geom=allchk scrf=(iefpcm,solvent=toluene) opt=(readfc
 ,ts,noeigen,maxcycles=50,maxstep=10)
 ----------------------------------------------------------------------

 Structure from the checkpoint file:  "TS-898_hf.chk"
 ----------
 TS-898.out
 ----------
 Charge =  0 Multiplicity = 1

 SCF Done:  E(RwB97XD) =  -864.693392011     A.U. after   16 cycles
 SCF Done:  E(RwB97XD) =  -864.702362649     A.U. after   14 cycles
 SCF Done:  E(RwB97XD) =  -864.710037407     A.U. after   13 cycles
 SCF Done:  E(RwB97XD) =  -864.716168983     A.U. after   12 cycles
 SCF Done:  E(RwB97XD) =  -864.721052891     A.U. after   13 cycles
 SCF Done:  E(RwB97XD) =  -864.724530219     A.U. after   14 cycles
 SCF Done:  E(RwB97XD) =  -864.726533198     A.U. after   14 cycles
 SCF Done:  E(RwB97XD) =  -864.727383810     A.U. after   14 cycles
 SCF Done:  E(RwB97XD) =  -864.728197450     A.U. after   14 cycles
 SCF Done:  E(RwB97XD) =  -864.729977221     A.U. after   14 cycles
 SCF Done:  E(RwB97XD) =  -864.737787153     A.U. after   13 cycles
 SCF Done:  E(RwB97XD) =  -864.737737417     A.U. after   13 cycles
 SCF Done:  E(RwB97XD) =  -864.737701638     A.U. after   12 cycles
 SCF Done:  E(RwB97XD) =  -864.737840506     A.U. after   12 cycles
 SCF Done:  E(RwB97XD) =  -864.737840172     A.U. after   11 cycles
 SCF Done:  E(RwB97XD) =  -864.737843033     A.U. after   11 cycles
 SCF Done:  E(RwB97XD) =  -864.737844226     A.U. after   10 cycles
 SCF Done:  E(RwB97XD) =  -864.737836351     A.U. after   11 cycles
 SCF Done:  E(RwB97XD) =  -864.737844000     A.U. after   11 cycles
 SCF Done:  E(RwB97XD) =  -864.737844005     A.U. after    7 cycles
 Optimization completed.
    -- Stationary point found.

                         Standard orientation:
 ---------------------------------------------------------------------
 Center     Atomic      Atomic             Coordinates (Angstroms)
 Number     Number       Type             X           Y           Z
 ---------------------------------------------------------------------
      1          6           0       -0.589043   -0.475312   -0.152441
      2          6           0       -1.831657    0.042107    0.367248
      3          8           0       -1.958452    0.881046    1.266832
      4          6           0        0.650941   -0.022985    0.353108
      5          6           0        0.683904    2.142636   -1.283047
      6          1           0        1.013146    2.550533   -2.247646
      7          1           0       -0.366402    1.821989   -1.352394
      8          1           0        0.770250    2.914968   -0.510152
      9          7           0        1.474733    0.976018   -0.899937
     10          1           0        1.585458    0.327604   -1.681512
     11          1           0        2.415068    1.217819   -0.580666
     12         17           0        1.998774   -1.302948    0.429491
     13          6           0        0.763401    0.838462    1.584174
     14          1           0        0.127940    1.725380    1.491543
     15          1           0        0.382900    0.275824    2.446369
     16          1           0        1.811381    1.110845    1.772628
     17          6           0       -0.610658   -1.439084   -1.321303
     18          1           0        0.393558   -1.834038   -1.530229
     19          1           0       -1.247002   -2.318884   -1.132805
     20          1           0       -0.983943   -0.979782   -2.255804
     21          6           0       -3.107626   -0.515177   -0.264239
     22          1           0       -3.187852   -1.602581   -0.109642
     23          1           0       -3.968082   -0.021410    0.204185
     24          1           0       -3.136659   -0.342532   -1.351318
 ---------------------------------------------------------------------

 The electronic state is 1-A.
 Alpha  occ. eigenvalues -- -101.66007 -19.18330 -14.53295 -10.40654 -10.35277
 Alpha  occ. eigenvalues --  -10.34213 -10.29622 -10.28403 -10.27307 -10.25549
 Alpha  occ. eigenvalues --   -9.56777  -7.32096  -7.31231  -7.31200  -1.07209
 Alpha  occ. eigenvalues --   -1.06384  -0.94769  -0.86176  -0.83060  -0.80246
 Alpha  occ. eigenvalues --   -0.78770  -0.73327  -0.67036  -0.65296  -0.60127
 Alpha  occ. eigenvalues --   -0.58360  -0.56003  -0.53705  -0.51968  -0.50907
 Alpha  occ. eigenvalues --   -0.49767  -0.49438  -0.47963  -0.46957  -0.46330
 Alpha  occ. eigenvalues --   -0.44968  -0.44101  -0.44047  -0.42679  -0.40558
 Alpha  occ. eigenvalues --   -0.38425  -0.37841  -0.28808  -0.25256
 Alpha virt. eigenvalues --    0.08287   0.08752   0.11082   0.14210   0.15418
 Alpha virt. eigenvalues --    0.16556   0.17186   0.19226   0.19765   0.20876
 Alpha virt. eigenvalues --    0.21499   0.22706   0.22946   0.24416   0.24953

 Mulliken charges:
               1
     1  C   -0.178021
     2  C    0.015602
     3  O   -0.353680
     4  C   -0.246976
     5  C    0.015699
     6  H    0.075711
     7  H    0.092134
     8  H    0.080394
     9  N   -0.147560
    10  H    0.176043
    11  H    0.174771
    12  Cl  -0.158578
    13  C    0.101518
    14  H    0.067531
    15  H    0.072624
    16  H    0.024648
    17  C    0.029572
    18  H    0.018027
    19  H    0.030529
    20  H    0.018176
    21  C   -0.021085
    22  H    0.046613
    23  H    0.034067
    24  H    0.032240
 Sum of Mulliken charges =  -0.00000

 Dipole moment (field-independent basis, Debye):
    X=              4.9613    Y=              2.7828    Z=             -4.8833  Tot=              7.4970
 Quadrupole moment (field-independent basis, Debye-Ang):
   XX=            -70.4230   YY=            -66.8935   ZZ=            -67.6879
   XY=             10.8643   XZ=              1.0722   YZ=             -4.9397

 Normal termination of Gaussian 16 at Tue Dec 19 13:55:36 2023.
