 Gaussian 16, Revision C.01,
 Gaussian 16:  ES64L-G16RevC.01  3-Jul-2019

 ----------------------------------------------------------------------
 # wb97xd chkbasis guess=read geom=allchk scrf=(iefpcm,solvent=toluene)
  opt=(readfc,ts,noeigen,maxcycles=50,maxstep=10)
 ----------------------------------------------------------------------

 Structure from the checkpoint file:  "TS-898_opt_sqm.chk"
 ----------
 TS-898.out
 ----------
 Charge =  0 Multiplicity = 1

 SCF Done:  E(RwB97XD) =  -864.737593119     A.U. after    1 cycles
 SCF Done:  E(RwB97XD) =  -864.737679041     A.U. after   12 cycles
 SCF Done:  E(RwB97XD) =  -864.737647650     A.U. after   13 cycles
 SCF Done:  E(RwB97XD) =  -864.737694123     A.U. after   11 cycles
 SCF Done:  E(RwB97XD) =  -864.737721386     A.U. after   12 cycles
 SCF Done:  E(RwB97XD) =  -864.737672943     A.U. after   12 cycles
 SCF Done:  E(RwB97XD) =  -864.737831806     A.U. after   12 cycles
 SCF Done:  E(RwB97XD) =  -864.737707528     A.U. after   12 cycles
 SCF Done:  E(RwB97XD) =  -864.737841731     A.U. after   12 cycles
 SCF Done:  E(RwB97XD) =  -864.737839224     A.U. after   11 cycles
 SCF Done:  E(RwB97XD) =  -864.737843334     A.U. after   10 cycles
 SCF Done:  E(RwB97XD) =  -864.737843914     A.U. after   10 cycles
 SCF Done:  E(RwB97XD) =  -864.737843944     A.U. after    7 cycles
 SCF Done:  E(RwB97XD) =  -864.737820191     A.U. after   12 cycles
 SCF Done:  E(RwB97XD) =  -864.737843255     A.U. after   12 cycles
 SCF Done:  E(RwB97XD) =  -864.737823417     A.U. after   12 cycles
 SCF Done:  E(RwB97XD) =  -864.737843989     A.U. after   12 cycles
 SCF Done:  E(RwB97XD) =  -864.737843968     A.U. after    9 cycles
 SCF Done:  E(RwB97XD) =  -864.737843947     A.U. after    9 cycles
 SCF Done:  E(RwB97XD) =  -864.737843957     A.U. after    8 cycles
 Optimization completed.
    -- Stationary point found.

                         Standard orientation:
 ---------------------------------------------------------------------
 Center     Atomic      Atomic             Coordinates (Angstroms)
 Number     Number       Type             X           Y           Z
 ---------------------------------------------------------------------
      1          6           0       -0.588994   -0.475451   -0.152330
      2          6           0       -1.831615    0.042010    0.367304
      3          8           0       -1.958429    0.881040    1.266804
      4          6           0        0.650986   -0.022992    0.353123
      5          6           0        0.683499    2.142556   -1.283127
      6          1           0        1.012551    2.550458   -2.247793
      7          1           0       -0.366767    1.821745   -1.352327
      8          1           0        0.769823    2.914938   -0.510286
      9          7           0        1.474559    0.976083   -0.900065
     10          1           0        1.585298    0.327657   -1.681629
     11          1           0        2.414893    1.218056   -0.580926
     12         17           0        1.998955   -1.302746    0.429473
     13          6           0        0.763419    0.838557    1.584124
     14          1           0        0.127729    1.725320    1.491490
     15          1           0        0.383143    0.275886    2.446392
     16          1           0        1.811361    1.111160    1.772455
     17          6           0       -0.610584   -1.439235   -1.321178
     18          1           0        0.393575   -1.834504   -1.529789
     19          1           0       -1.247258   -2.318829   -1.132853
     20          1           0       -0.983432   -0.979838   -2.255810
     21          6           0       -3.107576   -0.515324   -0.264155
     22          1           0       -3.968030   -0.021488    0.204195
     23          1           0       -3.136568   -0.342772   -1.351249
     24          1           0       -3.187839   -1.602715   -0.109458
 ---------------------------------------------------------------------

 The electronic state is 1-A.
 Alpha  occ. eigenvalues -- -101.66008 -19.18330 -14.53294 -10.40653 -10.35277
 Alpha  occ. eigenvalues --  -10.34214 -10.29622 -10.28403 -10.27307 -10.25550
 Alpha  occ. eigenvalues --   -9.56778  -7.32096  -7.31232  -7.31200  -1.07209
 Alpha  occ. eigenvalues --   -1.06383  -0.94769  -0.86176  -0.83060  -0.80245
 Alpha  occ. eigenvalues --   -0.78770  -0.73327  -0.67036  -0.65296  -0.60127
 Alpha  occ. eigenvalues --   -0.58360  -0.56003  -0.53705  -0.51968  -0.50907
 Alpha  occ. eigenvalues --   -0.49767  -0.49438  -0.47963  -0.46958  -0.46330
 Alpha  occ. eigenvalues --   -0.44967  -0.44101  -0.44047  -0.42679  -0.40558
 Alpha  occ. eigenvalues --   -0.38425  -0.37841  -0.28808  -0.25257
 Alpha virt. eigenvalues --    0.08286   0.08753   0.11083   0.14211   0.15418
 Alpha virt. eigenvalues --    0.16557   0.17185   0.19226   0.19765   0.20875
 Alpha virt. eigenvalues --    0.21500   0.22706   0.22947   0.24416   0.24952

 Mulliken charges:
               1
     1  C   -0.178030
     2  C    0.015615
     3  O   -0.353683
     4  C   -0.246944
     5  C    0.015695
     6  H    0.075706
     7  H    0.092137
     8  H    0.080391
     9  N   -0.147578
    10  H    0.176042
    11  H    0.174768
    12  Cl  -0.158550
    13  C    0.101503
    14  H    0.067546
    15  H    0.072617
    16  H    0.024646
    17  C    0.029546
    18  H    0.018038
    19  H    0.030527
    20  H    0.018174
    21  C   -0.021098
    22  H    0.034066
    23  H    0.032241
    24  H    0.046626
 Sum of Mulliken charges =  -0.00000

 Dipole moment (field-independent basis, Debye):
    X=              4.9605    Y=              2.7826    Z=             -4.8835  Tot=              7.4965
 Quadrupole moment (field-independent basis, Debye-Ang):
   XX=            -70.4245   YY=            -66.8930   ZZ=            -67.6875
   XY=             10.8631   XZ=              1.0722   YZ=             -4.9400

 Normal termination of Gaussian 16 at Sat Dec 30 16:42:22 2023.
