 Gaussian 16, Revision C.01,
 Gaussian 16:  ES64L-G16RevC.01  3-Jul-2019

 -----------------------------------------------------------
 # wb97xd def2svp scrf=(iefpcm,solvent=toluene) freq=noraman
 -----------------------------------------------------------

 ------------------
 TS-898_opt_dft.out
 ------------------
 Symbolic Z-matrix:
 Charge =  0 Multiplicity = 1

                         Standard orientation:
 ---------------------------------------------------------------------
 Center     Atomic      Atomic             Coordinates (Angstroms)
 Number     Number       Type             X           Y           Z
 ---------------------------------------------------------------------
      1          6           0        0.589032   -0.475341    0.152370
      2          6           0        1.831611    0.042240   -0.367180
      3          8           0        1.958381    0.881580   -1.266420
      4          6           0       -0.650979   -0.022942   -0.353090
      5          6           0       -0.683771    2.142458    1.283240
      6          1           0       -1.012811    2.550198    2.247980
      7          1           0        0.366550    1.821799    1.352320
      8          1           0       -0.770291    2.914908    0.510480
      9          7           0       -1.474670    0.975897    0.900100
     10          1           0       -1.585349    0.327427    1.681640
     11          1           0       -2.415020    1.217766    0.580950
     12         17           0       -1.998788   -1.302863   -0.429620
     13          6           0       -0.763419    0.838708   -1.584030
     14          1           0       -0.127920    1.725588   -1.491220
     15          1           0       -0.382929    0.276198   -2.446310
     16          1           0       -1.811390    1.111127   -1.772460
     17          6           0        0.610682   -1.439441    1.320960
     18          1           0       -0.393587   -1.834192    1.530000
     19          1           0        1.246743   -2.319370    1.132070
     20          1           0        0.984292   -0.980511    2.255510
     21          6           0        3.107572   -0.515449    0.263970
     22          1           0        3.187523   -1.602849    0.109230
     23          1           0        3.968071   -0.021798   -0.204490
     24          1           0        3.136782   -0.342939    1.351070
 ---------------------------------------------------------------------

 SCF Done:  E(RwB97XD) =  -864.737843918     A.U. after   14 cycles

 The electronic state is 1-A.
 Alpha  occ. eigenvalues -- -101.66008 -19.18329 -14.53295 -10.40654 -10.35277
 Alpha  occ. eigenvalues --  -10.34213 -10.29622 -10.28403 -10.27306 -10.25549
 Alpha  occ. eigenvalues --   -9.56778  -7.32096  -7.31232  -7.31200  -1.07208
 Alpha  occ. eigenvalues --   -1.06384  -0.94769  -0.86176  -0.83061  -0.80246
 Alpha  occ. eigenvalues --   -0.78769  -0.73327  -0.67036  -0.65297  -0.60128
 Alpha  occ. eigenvalues --   -0.58360  -0.56003  -0.53705  -0.51968  -0.50907
 Alpha  occ. eigenvalues --   -0.49767  -0.49438  -0.47963  -0.46956  -0.46330
 Alpha  occ. eigenvalues --   -0.44967  -0.44101  -0.44047  -0.42679  -0.40557
 Alpha  occ. eigenvalues --   -0.38426  -0.37841  -0.28807  -0.25256
 Alpha virt. eigenvalues --    0.08288   0.08753   0.11083   0.14211   0.15418
 Alpha virt. eigenvalues --    0.16556   0.17186   0.19226   0.19766   0.20876
 Alpha virt. eigenvalues --    0.21499   0.22706   0.22946   0.24416   0.24953

 Mulliken charges:
               1
     1  C   -0.178052
     2  C    0.015597
     3  O   -0.353711
     4  C   -0.246963
     5  C    0.015688
     6  H    0.075710
     7  H    0.092146
     8  H    0.080396
     9  N   -0.147545
    10  H    0.176045
    11  H    0.174767
    12  Cl  -0.158549
    13  C    0.101500
    14  H    0.067545
    15  H    0.072619
    16  H    0.024648
    17  C    0.029596
    18  H    0.018014
    19  H    0.030527
    20  H    0.018176
    21  C   -0.021061
    22  H    0.046601
    23  H    0.034067
    24  H    0.032240
 Sum of Mulliken charges =  -0.00000

 Dipole moment (field-independent basis, Debye):
    X=             -4.9616    Y=              2.7813    Z=              4.8833  Tot=              7.4966
 Quadrupole moment (field-independent basis, Debye-Ang):
   XX=            -70.4234   YY=            -66.8965   ZZ=            -67.6846
   XY=            -10.8651   XZ=              1.0698   YZ=              4.9407

  Exact polarizability:     139.234      -0.992     106.167      -1.011      -5.160     100.160
 Approx polarizability:     127.135       5.697     107.492      -3.505      -6.623     101.607

 ******    1 imaginary frequencies (negative Signs) ******

                      1                      2                      3
                      A                      A                      A
 Frequencies --   -327.5566                60.7526                70.8304
 Red. masses --      5.5917                 2.1139                 4.3441
 Frc consts  --      0.3535                 0.0046                 0.0128
 IR Inten    --    375.5811                 3.9560                 1.0255

                      4                      5                      6
                      A                      A                      A
 Frequencies --    104.3617               108.0463               158.2348
 Red. masses --      1.3541                 2.0530                 1.7817
 Frc consts  --      0.0087                 0.0141                 0.0263
 IR Inten    --      3.8419                 2.4878                 4.7139

                      7                      8                      9
                      A                      A                      A
 Frequencies --    191.2078               211.8766               217.1901
 Red. masses --      1.4020                 1.6034                 1.9506
 Frc consts  --      0.0302                 0.0424                 0.0542
 IR Inten    --      1.7304                 1.2339                 2.1254

                     10                     11                     12
                      A                      A                      A
 Frequencies --    233.6670               280.3690               301.6155
 Red. masses --      2.9073                 1.3902                 2.4022
 Frc consts  --      0.0935                 0.0644                 0.1288
 IR Inten    --     23.4550                 1.2960                 3.3271

                     13                     14                     15
                      A                      A                      A
 Frequencies --    330.6243               354.0342               364.9880
 Red. masses --      2.9543                 3.5658                 2.9764
 Frc consts  --      0.1903                 0.2633                 0.2336
 IR Inten    --      3.6790                32.6390                 5.5118

                     16                     17                     18
                      A                      A                      A
 Frequencies --    371.5389               466.7207               500.6364
 Red. masses --      3.4283                 3.1936                 3.0929
 Frc consts  --      0.2788                 0.4099                 0.4567
 IR Inten    --     16.9204                24.4738                77.1968

                     19                     20                     21
                      A                      A                      A
 Frequencies --    566.2471               614.1237               658.9838
 Red. masses --      3.5946                 3.2449                 2.8424
 Frc consts  --      0.6791                 0.7210                 0.7273
 IR Inten    --     83.6869                11.6985                43.3587

                     22                     23                     24
                      A                      A                      A
 Frequencies --    717.6508               776.5531               938.9757
 Red. masses --      2.1415                 1.8362                 1.8281
 Frc consts  --      0.6498                 0.6524                 0.9497
 IR Inten    --     29.1010               109.0163                48.9281

                     25                     26                     27
                      A                      A                      A
 Frequencies --    974.1401              1005.3938              1018.7953
 Red. masses --      1.4963                 1.0995                 1.5832
 Frc consts  --      0.8366                 0.6548                 0.9682
 IR Inten    --     74.1437                21.7165                 2.1020

                     28                     29                     30
                      A                      A                      A
 Frequencies --   1040.8612              1049.0579              1057.1561
 Red. masses --      1.4712                 1.5608                 1.5101
 Frc consts  --      0.9391                 1.0120                 0.9943
 IR Inten    --     38.2949                37.2379                 1.2658

                     31                     32                     33
                      A                      A                      A
 Frequencies --   1081.6379              1103.7126              1146.6664
 Red. masses --      1.6022                 2.9831                 2.5689
 Frc consts  --      1.1044                 2.1410                 1.9901
 IR Inten    --     49.6896                56.2853                36.4383

                     34                     35                     36
                      A                      A                      A
 Frequencies --   1167.8015              1237.6337              1319.3886
 Red. masses --      3.0320                 1.3820                 1.3392
 Frc consts  --      2.4363                 1.2472                 1.3735
 IR Inten    --      2.3852                50.4011                 4.2482

                     37                     38                     39
                      A                      A                      A
 Frequencies --   1346.5657              1378.8837              1400.6477
 Red. masses --      1.5910                 1.9312                 1.4631
 Frc consts  --      1.6997                 2.1633                 1.6912
 IR Inten    --     33.2041                14.3352               164.0050

                     40                     41                     42
                      A                      A                      A
 Frequencies --   1408.1512              1417.8691              1433.1872
 Red. masses --      1.5255                 1.1135                 1.2437
 Frc consts  --      1.7822                 1.3189                 1.5051
 IR Inten    --     95.1363                12.9303                93.6416

                     43                     44                     45
                      A                      A                      A
 Frequencies --   1438.1303              1449.3081              1457.8677
 Red. masses --      1.0572                 1.3646                 1.0769
 Frc consts  --      1.2883                 1.6888                 1.3486
 IR Inten    --     27.6503               116.2526                39.0370

                     46                     47                     48
                      A                      A                      A
 Frequencies --   1464.3680              1479.4251              1480.3010
 Red. masses --      1.1599                 1.1146                 1.0467
 Frc consts  --      1.4655                 1.4373                 1.3513
 IR Inten    --     40.6459                46.1182                27.7898

                     49                     50                     51
                      A                      A                      A
 Frequencies --   1487.0994              1495.1278              1614.5863
 Red. masses --      1.0682                 1.4308                 1.0945
 Frc consts  --      1.3919                 1.8844                 1.6810
 IR Inten    --     39.3746               331.8013                48.4122

                     52                     53                     54
                      A                      A                      A
 Frequencies --   1730.8627              3011.1958              3050.9149
 Red. masses --      9.8306                 1.0480                 1.0375
 Frc consts  --     17.3522                 5.5986                 5.6900
 IR Inten    --    364.9638                71.5767                15.1824

                     55                     56                     57
                      A                      A                      A
 Frequencies --   3069.6351              3076.7182              3089.7327
 Red. masses --      1.0348                 1.0394                 1.0945
 Frc consts  --      5.7449                 5.7969                 6.1564
 IR Inten    --     25.4861                21.4626                29.5751

                     58                     59                     60
                      A                      A                      A
 Frequencies --   3140.7903              3146.3367              3174.6856
 Red. masses --      1.1022                 1.0990                 1.1061
 Frc consts  --      6.4058                 6.4100                 6.5684
 IR Inten    --     13.5312                15.5007                 0.3398

                     61                     62                     63
                      A                      A                      A
 Frequencies --   3179.4969              3181.9775              3201.3082
 Red. masses --      1.1059                 1.1034                 1.1077
 Frc consts  --      6.5868                 6.5823                 6.6887
 IR Inten    --     14.2396                 6.2327                 4.0857

                     64                     65                     66
                      A                      A                      A
 Frequencies --   3209.3863              3513.7705              3597.0773
 Red. masses --      1.1034                 1.0534                 1.0968
 Frc consts  --      6.6962                 7.6627                 8.3616
 IR Inten    --      0.0258                50.3960                53.3082

 - Thermochemistry -
 -------------------
 Temperature   298.150 Kelvin.  Pressure   1.00000 Atm.
 Atom     1 has atomic number  6 and mass  12.00000

 Molecular mass:   163.07639 amu.
 Principal axes and moments of inertia in atomic units:
                           1         2         3
     Eigenvalues --  1303.000282208.525442436.89561
           X            0.99631  -0.08413   0.01689
           Y            0.08485   0.99522  -0.04839
           Z           -0.01274   0.04964   0.99869
 This molecule is an asymmetric top.
 Rotational symmetry number  1.
 Warning -- assumption of classical behavior for rotation
           may cause significant error
 Rotational temperatures (Kelvin)      0.06647     0.03922     0.03554
 Rotational constants (GHZ):           1.38507     0.81717     0.74059
    1 imaginary frequencies ignored.
 Zero-point vibrational energy     537882.2 (Joules/Mol)
                                  128.55693 (Kcal/Mol)
 Warning -- explicit consideration of  19 degrees of freedom as
           vibrations may cause significant error
 Vibrational temperatures:     87.41   101.91   150.15   155.45   227.66
          (Kelvin)            275.11   304.84   312.49   336.19   403.39
                              433.96   475.69   509.38   525.14   534.56
                              671.51   720.30   814.70   883.59   948.13
                             1032.54  1117.29  1350.98  1401.57  1446.54
                             1465.82  1497.57  1509.36  1521.01  1556.24
                             1588.00  1649.80  1680.21  1780.68  1898.31
                             1937.41  1983.91  2015.22  2026.02  2040.00
                             2062.04  2069.15  2085.23  2097.55  2106.90
                             2128.56  2129.82  2139.60  2151.16  2323.03
                             2490.33  4332.44  4389.59  4416.52  4426.71
                             4445.44  4518.90  4526.88  4567.66  4574.59
                             4578.16  4605.97  4617.59  5055.53  5175.39

 Zero-point correction=                           0.204869 (Hartree/Particle)
 Thermal correction to Energy=                    0.217415
 Thermal correction to Enthalpy=                  0.218359
 Thermal correction to Gibbs Free Energy=         0.166442
 Sum of electronic and zero-point Energies=           -864.532975
 Sum of electronic and thermal Energies=              -864.520429
 Sum of electronic and thermal Enthalpies=            -864.519485
 Sum of electronic and thermal Free Energies=         -864.571402

                     E (Thermal)             CV                S
                      KCal/Mol        Cal/Mol-Kelvin    Cal/Mol-Kelvin
 Total                  136.430             44.997            109.270
 Electronic               0.000              0.000              0.000
 Translational            0.889              2.981             41.176
 Rotational               0.889              2.981             30.329
 Vibrational            134.653             39.035             37.765
 Vibration     1          0.597              1.973              4.433
 Vibration     2          0.598              1.968              4.130
 Vibration     3          0.605              1.946              3.371
 Vibration     4          0.606              1.943              3.304
 Vibration     5          0.621              1.893              2.571
 Vibration     6          0.634              1.852              2.216
 Vibration     7          0.643              1.823              2.027
 Vibration     8          0.646              1.815              1.982
 Vibration     9          0.654              1.789              1.851
 Vibration    10          0.680              1.710              1.531
 Vibration    11          0.694              1.671              1.408
 Vibration    12          0.713              1.614              1.257
 Vibration    13          0.730              1.567              1.148
 Vibration    14          0.738              1.544              1.101
 Vibration    15          0.743              1.531              1.073
 Vibration    16          0.824              1.324              0.747
 Vibration    17          0.856              1.249              0.657
 Vibration    18          0.922              1.104              0.512
 Vibration    19          0.974              1.002              0.426

 Normal termination of Gaussian 16 at Sat Dec 30 21:02:33 2023.
