 Gaussian 16, Revision C.01,
 Gaussian 16:  ES64L-G16RevC.01  3-Jul-2019

 ----------------------------------------------------------------------
 # wb97xd def2svp geom=allchk scrf=(iefpcm,solvent=toluene) opt=(readfc
 ,ts,noeigen,maxcycles=50,maxstep=10)
 ----------------------------------------------------------------------

 Structure from the checkpoint file:  "imda-2_1_hf.chk"
 ---------------------
 3g_exo_ts_6_reopt.out
 ---------------------
 Charge =  0 Multiplicity = 1

 SCF Done:  E(RwB97XD) =  -3165.52644361     A.U. after   16 cycles
 SCF Done:  E(RwB97XD) =  -3165.53514811     A.U. after   15 cycles
 SCF Done:  E(RwB97XD) =  -3165.53903309     A.U. after   14 cycles
 SCF Done:  E(RwB97XD) =  -3165.53866774     A.U. after   15 cycles
 SCF Done:  E(RwB97XD) =  -3165.53855891     A.U. after   16 cycles
 SCF Done:  E(RwB97XD) =  -3165.53801948     A.U. after   14 cycles
 SCF Done:  E(RwB97XD) =  -3165.53882794     A.U. after   15 cycles
 SCF Done:  E(RwB97XD) =  -3165.53883355     A.U. after   15 cycles
 SCF Done:  E(RwB97XD) =  -3165.53890455     A.U. after   15 cycles
 SCF Done:  E(RwB97XD) =  -3165.53966493     A.U. after   16 cycles
 SCF Done:  E(RwB97XD) =  -3165.54154274     A.U. after   11 cycles
 SCF Done:  E(RwB97XD) =  -3165.54154307     A.U. after   11 cycles
 SCF Done:  E(RwB97XD) =  -3165.54154353     A.U. after   11 cycles
 SCF Done:  E(RwB97XD) =  -3165.54154340     A.U. after   10 cycles
 SCF Done:  E(RwB97XD) =  -3165.54154351     A.U. after   10 cycles
 SCF Done:  E(RwB97XD) =  -3165.54154342     A.U. after    9 cycles
 SCF Done:  E(RwB97XD) =  -3165.54154343     A.U. after    8 cycles
 SCF Done:  E(RwB97XD) =  -3165.54154338     A.U. after    9 cycles
 SCF Done:  E(RwB97XD) =  -3165.54154338     A.U. after    7 cycles
 SCF Done:  E(RwB97XD) =  -3165.54154339     A.U. after    7 cycles
 Optimization completed.
    -- Stationary point found.

                         Standard orientation:
 ---------------------------------------------------------------------
 Center     Atomic      Atomic             Coordinates (Angstroms)
 Number     Number       Type             X           Y           Z
 ---------------------------------------------------------------------
      1          6           0       -2.055340   -2.094382   -0.337134
      2          6           0        0.385931   -0.584635    1.612630
      3          6           0       -2.055388    0.125089   -0.676535
      4          6           0       -0.281901    0.575117    1.568159
      5          6           0       -3.062230   -1.566685    0.443630
      6          6           0       -3.064806   -0.161406    0.227935
      7          6           0       -1.547371    1.439156   -1.190632
      8          1           0       -0.723423    1.260964   -1.897475
      9          1           0       -2.336156    1.954575   -1.760002
     10          6           0       -1.070245    2.389717   -0.081038
     11          1           0       -0.699900    3.333537   -0.504534
     12          1           0       -1.926003    2.634533    0.573096
     13          6           0        0.020709    1.850197    0.822367
     14          8           0        1.035868    2.460620    1.054864
     15          1           0       -1.152131    0.656617    2.228188
     16          1           0        0.061646   -1.352420    2.320183
     17          6           0        1.569763   -1.032898    0.857383
     18          8           0        2.286599   -1.916657    1.182179
     19          7           0       -1.471971   -1.061992   -1.017076
     20          1           0       -0.663601   -1.145886   -1.620756
     21          1           0       -1.725471   -3.120550   -0.478454
     22         35           0        1.923236   -0.148925   -0.882728
     23          1           0       -3.729197   -2.131457    1.091550
     24          1           0       -3.729690    0.569098    0.686267
 ---------------------------------------------------------------------

 The electronic state is 1-A.
 Alpha  occ. eigenvalues -- -483.06640 -62.64871 -56.45597 -56.45315 -56.45280
 Alpha  occ. eigenvalues --  -19.29963 -19.26607 -14.49556 -10.45744 -10.41015
 Alpha  occ. eigenvalues --  -10.34948 -10.34308 -10.33037 -10.32326 -10.32323
 Alpha  occ. eigenvalues --  -10.31916 -10.28809 -10.28778  -8.81819  -6.64231
 Alpha  occ. eigenvalues --   -6.63169  -6.63056  -2.74624  -2.74345  -2.74257
 Alpha  occ. eigenvalues --   -2.73412  -2.73411  -1.19626  -1.15515  -1.08134
 Alpha  occ. eigenvalues --   -0.93082  -0.90652  -0.88335  -0.87013  -0.82600
 Alpha  occ. eigenvalues --   -0.78384  -0.74241  -0.68316  -0.67961  -0.66539
 Alpha  occ. eigenvalues --   -0.62006  -0.60955  -0.59639  -0.58486  -0.56164
 Alpha  occ. eigenvalues --   -0.55130  -0.54307  -0.53588  -0.52195  -0.51887
 Alpha  occ. eigenvalues --   -0.50845  -0.49974  -0.48102  -0.47570  -0.46975
 Alpha  occ. eigenvalues --   -0.45603  -0.44046  -0.39222  -0.38860  -0.38149
 Alpha  occ. eigenvalues --   -0.37201  -0.35018  -0.33369  -0.29256
 Alpha virt. eigenvalues --   -0.02310   0.04107   0.06153   0.09765   0.11658
 Alpha virt. eigenvalues --    0.13408   0.13800   0.14790   0.15690   0.17575
 Alpha virt. eigenvalues --    0.19703   0.20164   0.20581   0.21565   0.23374

 Mulliken charges:
               1
     1  C    0.027617
     2  C   -0.039633
     3  C   -0.083705
     4  C    0.025291
     5  C   -0.077339
     6  C   -0.113393
     7  C    0.112167
     8  H    0.026483
     9  H    0.058449
    10  C   -0.034586
    11  H    0.056277
    12  H    0.074581
    13  C    0.062966
    14  O   -0.206356
    15  H    0.088623
    16  H    0.078339
    17  C    0.121047
    18  O   -0.142452
    19  N   -0.115827
    20  H    0.148884
    21  H    0.042460
    22  Br  -0.144979
    23  H    0.023148
    24  H    0.011938
 Sum of Mulliken charges =  -0.00000

 Dipole moment (field-independent basis, Debye):
    X=             -3.9751    Y=              0.2526    Z=             -0.7876  Tot=              4.0603
 Quadrupole moment (field-independent basis, Debye-Ang):
   XX=           -103.8556   YY=            -94.4619   ZZ=            -88.4508
   XY=             -4.2541   XZ=             -6.6455   YZ=             -1.3942

 Normal termination of Gaussian 16 at Fri Dec 22 01:05:35 2023.
