 Gaussian 16, Revision C.01,
 Gaussian 16:  ES64L-G16RevC.01  3-Jul-2019

 -----------------------------------------------------------
 # wb97xd def2svp scrf=(iefpcm,solvent=toluene) freq=noraman
 -----------------------------------------------------------

 --------------------
 imda-2_1_opt_dft.out
 --------------------
 Symbolic Z-matrix:
 Charge =  0 Multiplicity = 1

                         Standard orientation:
 ---------------------------------------------------------------------
 Center     Atomic      Atomic             Coordinates (Angstroms)
 Number     Number       Type             X           Y           Z
 ---------------------------------------------------------------------
      1          6           0       -2.055770   -2.094771   -0.336730
      2          6           0        0.386979   -0.584240    1.612730
      3          6           0       -2.056071    0.124719   -0.676030
      4          6           0       -0.281862    0.574909    1.567990
      5          6           0       -3.062651   -1.567212    0.444140
      6          6           0       -3.065391   -0.161922    0.228500
      7          6           0       -1.548262    1.438849   -1.190180
      8          1           0       -0.724232    1.260729   -1.896950
      9          1           0       -2.337082    1.954129   -1.759630
     10          6           0       -1.071222    2.389519   -0.080620
     11          1           0       -0.701213    3.333419   -0.504210
     12          1           0       -1.926863    2.634039    0.573770
     13          6           0        0.020268    1.850050    0.822160
     14          8           0        1.035778    2.460270    1.053680
     15          1           0       -1.152522    0.655649    2.227540
     16          1           0        0.063209   -1.352280    2.320240
     17          6           0        1.571619   -1.031310    0.857970
     18          8           0        2.290130   -1.913279    1.183900
     19          7           0       -1.472561   -1.062301   -1.016680
     20          1           0       -0.664111   -1.146061   -1.620260
     21          1           0       -1.725720   -3.120881   -0.478010
     22         35           0        1.922949   -0.149329   -0.883570
     23          1           0       -3.729510   -2.132072    1.092080
     24          1           0       -3.730312    0.568498    0.686930
 ---------------------------------------------------------------------

 SCF Done:  E(RwB97XD) =  -3165.54154334     A.U. after   16 cycles

 The electronic state is 1-A.
 Alpha  occ. eigenvalues -- -483.06641 -62.64872 -56.45598 -56.45316 -56.45280
 Alpha  occ. eigenvalues --  -19.29965 -19.26607 -14.49555 -10.45746 -10.41014
 Alpha  occ. eigenvalues --  -10.34946 -10.34311 -10.33036 -10.32326 -10.32322
 Alpha  occ. eigenvalues --  -10.31916 -10.28808 -10.28777  -8.81820  -6.64231
 Alpha  occ. eigenvalues --   -6.63169  -6.63056  -2.74625  -2.74345  -2.74258
 Alpha  occ. eigenvalues --   -2.73413  -2.73411  -1.19627  -1.15515  -1.08133
 Alpha  occ. eigenvalues --   -0.93083  -0.90652  -0.88335  -0.87013  -0.82600
 Alpha  occ. eigenvalues --   -0.78383  -0.74240  -0.68315  -0.67961  -0.66538
 Alpha  occ. eigenvalues --   -0.62006  -0.60955  -0.59638  -0.58488  -0.56164
 Alpha  occ. eigenvalues --   -0.55133  -0.54306  -0.53586  -0.52195  -0.51886
 Alpha  occ. eigenvalues --   -0.50846  -0.49974  -0.48101  -0.47569  -0.46975
 Alpha  occ. eigenvalues --   -0.45602  -0.44047  -0.39224  -0.38860  -0.38149
 Alpha  occ. eigenvalues --   -0.37201  -0.35018  -0.33368  -0.29255
 Alpha virt. eigenvalues --   -0.02312   0.04108   0.06151   0.09763   0.11658
 Alpha virt. eigenvalues --    0.13408   0.13803   0.14794   0.15692   0.17575
 Alpha virt. eigenvalues --    0.19704   0.20164   0.20581   0.21565   0.23374

 Mulliken charges:
               1
     1  C    0.027611
     2  C   -0.039785
     3  C   -0.083671
     4  C    0.025392
     5  C   -0.077340
     6  C   -0.113459
     7  C    0.112117
     8  H    0.026469
     9  H    0.058468
    10  C   -0.034527
    11  H    0.056264
    12  H    0.074565
    13  C    0.062868
    14  O   -0.206337
    15  H    0.088574
    16  H    0.078408
    17  C    0.121205
    18  O   -0.142432
    19  N   -0.115802
    20  H    0.148856
    21  H    0.042440
    22  Br  -0.144963
    23  H    0.023141
    24  H    0.011939
 Sum of Mulliken charges =  -0.00000

 Dipole moment (field-independent basis, Debye):
    X=             -3.9758    Y=              0.2495    Z=             -0.7863  Tot=              4.0605
 Quadrupole moment (field-independent basis, Debye-Ang):
   XX=           -103.8719   YY=            -94.4478   ZZ=            -88.4533
   XY=             -4.2588   XZ=             -6.6462   YZ=             -1.3913

  Exact polarizability:     150.308      -7.897     157.902     -12.212     -13.861     123.458
 Approx polarizability:     150.375     -12.393     166.368     -14.017     -16.513     136.899

 ******    1 imaginary frequencies (negative Signs) ******

                      1                      2                      3
                      A                      A                      A
 Frequencies --    -10.6947                45.8975                71.0365
 Red. masses --     10.7000                 5.2132                10.2781
 Frc consts  --      0.0007                 0.0065                 0.0306
 IR Inten    --      0.2788                 2.3604                 1.1080

                      4                      5                      6
                      A                      A                      A
 Frequencies --     94.7356               111.0995               113.7779
 Red. masses --      5.8309                 3.7316                14.1381
 Frc consts  --      0.0308                 0.0271                 0.1078
 IR Inten    --      6.3021                 5.6590                 1.6004

                      7                      8                      9
                      A                      A                      A
 Frequencies --    155.4451               161.4040               231.7684
 Red. masses --      3.3523                 6.2851                 5.1944
 Frc consts  --      0.0477                 0.0965                 0.1644
 IR Inten    --      1.6097                 1.7362                 5.2728

                     10                     11                     12
                      A                      A                      A
 Frequencies --    263.0803               339.0138               357.8212
 Red. masses --      5.3021                 2.5001                 7.1473
 Frc consts  --      0.2162                 0.1693                 0.5392
 IR Inten    --      9.5286                 4.8383                12.5084

                     13                     14                     15
                      A                      A                      A
 Frequencies --    361.2731               451.6660               492.1011
 Red. masses --      4.2134                 2.6372                 2.4691
 Frc consts  --      0.3240                 0.3170                 0.3523
 IR Inten    --      5.4445                 4.0409                18.1444

                     16                     17                     18
                      A                      A                      A
 Frequencies --    504.0848               563.6088               590.4115
 Red. masses --      5.7801                 4.4125                 1.5489
 Frc consts  --      0.8653                 0.8258                 0.3181
 IR Inten    --     71.5840                25.8900               105.2115

                     19                     20                     21
                      A                      A                      A
 Frequencies --    640.2959               653.5023               692.5302
 Red. masses --      2.8283                 2.7383                 2.6079
 Frc consts  --      0.6832                 0.6890                 0.7369
 IR Inten    --      1.1968                14.2247                17.7047

                     22                     23                     24
                      A                      A                      A
 Frequencies --    696.8250               714.6340               741.5940
 Red. masses --      4.3493                 4.3107                 1.2389
 Frc consts  --      1.2443                 1.2971                 0.4014
 IR Inten    --      4.3549                19.6098                91.4607

                     25                     26                     27
                      A                      A                      A
 Frequencies --    784.9066               826.1327               830.1972
 Red. masses --      2.0564                 1.3220                 2.8186
 Frc consts  --      0.7464                 0.5316                 1.1446
 IR Inten    --     35.3346                20.0167                32.0206

                     28                     29                     30
                      A                      A                      A
 Frequencies --    884.7333               899.9738               912.9706
 Red. masses --      2.2800                 4.4941                 1.3801
 Frc consts  --      1.0515                 2.1446                 0.6777
 IR Inten    --     15.6955                 4.0827                 2.3646

                     31                     32                     33
                      A                      A                      A
 Frequencies --    963.4363               997.3911              1002.3994
 Red. masses --      2.4351                 1.3207                 2.0072
 Frc consts  --      1.3317                 0.7741                 1.1883
 IR Inten    --     28.8861                 2.2805                43.6589

                     34                     35                     36
                      A                      A                      A
 Frequencies --   1026.2954              1046.6818              1064.3489
 Red. masses --      1.9852                 1.3425                 3.1168
 Frc consts  --      1.2319                 0.8666                 2.0803
 IR Inten    --     12.5377                 3.7806               160.1734

                     37                     38                     39
                      A                      A                      A
 Frequencies --   1125.9735              1133.9281              1152.1091
 Red. masses --      1.8672                 1.5872                 1.3916
 Frc consts  --      1.3947                 1.2024                 1.0883
 IR Inten    --     16.2116                44.3066                32.2277

                     40                     41                     42
                      A                      A                      A
 Frequencies --   1197.0697              1251.2365              1270.5899
 Red. masses --      1.6647                 1.1725                 1.3210
 Frc consts  --      1.4055                 1.0816                 1.2565
 IR Inten    --     39.6898                23.2625                10.0768

                     43                     44                     45
                      A                      A                      A
 Frequencies --   1282.4339              1299.4908              1359.3043
 Red. masses --      2.5094                 1.4241                 1.5109
 Frc consts  --      2.4316                 1.4169                 1.6448
 IR Inten    --      5.9715                 2.5821                 5.7281

                     46                     47                     48
                      A                      A                      A
 Frequencies --   1383.9648              1399.9139              1444.4458
 Red. masses --      1.6630                 1.6933                 1.0919
 Frc consts  --      1.8767                 1.9552                 1.3422
 IR Inten    --     14.1130                38.5938                13.5039

                     49                     50                     51
                      A                      A                      A
 Frequencies --   1464.7746              1485.6218              1515.4859
 Red. masses --      1.2702                 2.5724                 3.5952
 Frc consts  --      1.6057                 3.3451                 4.8649
 IR Inten    --      8.1282                10.3245                 7.5593

                     52                     53                     54
                      A                      A                      A
 Frequencies --   1535.6733              1639.9208              1732.5391
 Red. masses --      5.9671                 4.1680                 8.4911
 Frc consts  --      8.2911                 6.6042                15.0170
 IR Inten    --      3.8133                 7.7112                30.2276

                     55                     56                     57
                      A                      A                      A
 Frequencies --   1853.8161              1914.3822              3059.0241
 Red. masses --     12.1529                13.0373                 1.0664
 Frc consts  --     24.6072                28.1510                 5.8793
 IR Inten    --    223.0182               585.9158                 7.3595

                     58                     59                     60
                      A                      A                      A
 Frequencies --   3076.7109              3134.0029              3151.1450
 Red. masses --      1.0635                 1.1043                 1.1007
 Frc consts  --      5.9312                 6.3905                 6.4398
 IR Inten    --     25.0128                11.1957                 9.4769

                     61                     62                     63
                      A                      A                      A
 Frequencies --   3193.5060              3214.4138              3252.9216
 Red. masses --      1.0859                 1.0950                 1.0937
 Frc consts  --      6.5250                 6.6661                 6.8187
 IR Inten    --      0.7919                 0.7283                 4.4619

                     64                     65                     66
                      A                      A                      A
 Frequencies --   3269.0812              3290.5494              3674.5594
 Red. masses --      1.0970                 1.1064                 1.0824
 Frc consts  --      6.9070                 7.0581                 8.6112
 IR Inten    --      1.9465                 0.3644               116.4385

 - Thermochemistry -
 -------------------
 Temperature   298.150 Kelvin.  Pressure   1.00000 Atm.
 Atom     1 has atomic number  6 and mass  12.00000

 Molecular mass:   254.98949 amu.
 Principal axes and moments of inertia in atomic units:
                           1         2         3
     Eigenvalues --  2483.210993950.334534702.31479
           X            0.99982   0.00166   0.01871
           Y           -0.00101   0.99941  -0.03448
           Z           -0.01876   0.03445   0.99923
 This molecule is an asymmetric top.
 Rotational symmetry number  1.
 Warning -- assumption of classical behavior for rotation
           may cause significant error
 Rotational temperatures (Kelvin)      0.03488     0.02193     0.01842
 Rotational constants (GHZ):           0.72678     0.45686     0.38380
    1 imaginary frequencies ignored.
 Zero-point vibrational energy     484760.7 (Joules/Mol)
                                  115.86059 (Kcal/Mol)
 Warning -- explicit consideration of  17 degrees of freedom as
           vibrations may cause significant error
 Vibrational temperatures:     66.04   102.21   136.30   159.85   163.70
          (Kelvin)            223.65   232.22   333.46   378.51   487.77
                              514.82   519.79   649.85   708.02   725.27
                              810.91   849.47   921.24   940.24   996.40
                             1002.58  1028.20  1066.99  1129.31  1188.62
                             1194.47  1272.93  1294.86  1313.56  1386.17
                             1435.02  1442.23  1476.61  1505.94  1531.36
                             1620.02  1631.47  1657.63  1722.32  1800.25
                             1828.10  1845.14  1869.68  1955.74  1991.22
                             2014.16  2078.24  2107.48  2137.48  2180.45
                             2209.49  2359.48  2492.74  2667.23  2754.37
                             4401.25  4426.70  4509.13  4533.79  4594.74
                             4624.82  4680.23  4703.48  4734.37  5286.87

 Zero-point correction=                           0.184636 (Hartree/Particle)
 Thermal correction to Energy=                    0.197133
 Thermal correction to Enthalpy=                  0.198077
 Thermal correction to Gibbs Free Energy=         0.144402
 Sum of electronic and zero-point Energies=          -3165.356908
 Sum of electronic and thermal Energies=             -3165.344411
 Sum of electronic and thermal Enthalpies=           -3165.343466
 Sum of electronic and thermal Free Energies=        -3165.397141

                     E (Thermal)             CV                S
                      KCal/Mol        Cal/Mol-Kelvin    Cal/Mol-Kelvin
 Total                  123.703             46.895            112.969
 Electronic               0.000              0.000              0.000
 Translational            0.889              2.981             42.508
 Rotational               0.889              2.981             32.200
 Vibrational            121.925             40.933             38.260
 Vibration     1          0.595              1.979              4.987
 Vibration     2          0.598              1.968              4.124
 Vibration     3          0.603              1.953              3.560
 Vibration     4          0.607              1.940              3.250
 Vibration     5          0.607              1.938              3.203
 Vibration     6          0.620              1.897              2.604
 Vibration     7          0.622              1.890              2.533
 Vibration     8          0.653              1.792              1.865
 Vibration     9          0.670              1.741              1.641
 Vibration    10          0.719              1.598              1.217
 Vibration    11          0.733              1.559              1.132
 Vibration    12          0.735              1.552              1.117
 Vibration    13          0.810              1.357              0.791
 Vibration    14          0.848              1.268              0.678
 Vibration    15          0.859              1.241              0.648
 Vibration    16          0.919              1.110              0.517
 Vibration    17          0.948              1.052              0.466

 Normal termination of Gaussian 16 at Sat Dec 30 20:59:26 2023.
