 Gaussian 16, Revision C.01,
 Gaussian 16:  ES64L-G16RevC.01  3-Jul-2019

 -----------------------------------------------------------
 # wb97xd def2svp scrf=(iefpcm,solvent=toluene) freq=noraman
 -----------------------------------------------------------

 -----------------------
 imda-2_1_opt_sqm_re.out
 -----------------------
 Symbolic Z-matrix:
 Charge =  0 Multiplicity = 1

                         Standard orientation:
 ---------------------------------------------------------------------
 Center     Atomic      Atomic             Coordinates (Angstroms)
 Number     Number       Type             X           Y           Z
 ---------------------------------------------------------------------
      1          6           0       -2.051555   -2.092437   -0.340329
      2          6           0        0.379377   -0.586621    1.612261
      3          6           0       -2.050632    0.127033   -0.679789
      4          6           0       -0.282891    0.576420    1.568711
      5          6           0       -3.058004   -1.564236    0.440651
      6          6           0       -3.059962   -0.158976    0.224961
      7          6           0       -1.541600    1.440742   -1.193689
      8          1           0       -0.716940    1.261991   -1.899529
      9          1           0       -2.329469    1.956403   -1.764119
     10          6           0       -1.065389    2.391211   -0.083749
     11          1           0       -0.692657    3.334241   -0.506939
     12          1           0       -1.922218    2.638022    0.568281
     13          6           0        0.022241    1.851490    0.823641
     14          8           0        1.035341    2.463098    1.061771
     15          1           0       -1.150971    0.661941    2.231151
     16          1           0        0.052046   -1.352670    2.320271
     17          6           0        1.557927   -1.042562    0.853861
     18          8           0        2.263845   -1.937783    1.171261
     19          7           0       -1.467853   -1.060288   -1.020449
     20          1           0       -0.660243   -1.144669   -1.625139
     21          1           0       -1.722246   -3.118758   -0.481799
     22         35           0        1.925038   -0.146073   -0.876999
     23          1           0       -3.724945   -2.128685    1.088871
     24          1           0       -3.724281    0.571845    0.683581
 ---------------------------------------------------------------------

 SCF Done:  E(RwB97XD) =  -3165.54154375     A.U. after   16 cycles

 The electronic state is 1-A.
 Alpha  occ. eigenvalues -- -483.06634 -62.64865 -56.45591 -56.45309 -56.45274
 Alpha  occ. eigenvalues --  -19.29949 -19.26602 -14.49565 -10.45732 -10.41022
 Alpha  occ. eigenvalues --  -10.34959 -10.34292 -10.33044 -10.32333 -10.32324
 Alpha  occ. eigenvalues --  -10.31920 -10.28814 -10.28784  -8.81813  -6.64224
 Alpha  occ. eigenvalues --   -6.63163  -6.63050  -2.74618  -2.74339  -2.74251
 Alpha  occ. eigenvalues --   -2.73406  -2.73405  -1.19612  -1.15514  -1.08142
 Alpha  occ. eigenvalues --   -0.93078  -0.90651  -0.88330  -0.87019  -0.82602
 Alpha  occ. eigenvalues --   -0.78387  -0.74246  -0.68321  -0.67961  -0.66545
 Alpha  occ. eigenvalues --   -0.62004  -0.60951  -0.59645  -0.58477  -0.56163
 Alpha  occ. eigenvalues --   -0.55108  -0.54305  -0.53600  -0.52194  -0.51897
 Alpha  occ. eigenvalues --   -0.50840  -0.49973  -0.48104  -0.47572  -0.46978
 Alpha  occ. eigenvalues --   -0.45605  -0.44043  -0.39203  -0.38859  -0.38146
 Alpha  occ. eigenvalues --   -0.37198  -0.35015  -0.33373  -0.29262
 Alpha virt. eigenvalues --   -0.02298   0.04103   0.06168   0.09776   0.11672
 Alpha virt. eigenvalues --    0.13408   0.13782   0.14768   0.15676   0.17574
 Alpha virt. eigenvalues --    0.19696   0.20165   0.20580   0.21566   0.23377

 Mulliken charges:
               1
     1  C    0.027724
     2  C   -0.038639
     3  C   -0.083864
     4  C    0.024710
     5  C   -0.077309
     6  C   -0.113009
     7  C    0.112363
     8  H    0.026508
     9  H    0.058413
    10  C   -0.034891
    11  H    0.056335
    12  H    0.074716
    13  C    0.063489
    14  O   -0.206408
    15  H    0.088891
    16  H    0.077875
    17  C    0.120000
    18  O   -0.142599
    19  N   -0.116044
    20  H    0.149089
    21  H    0.042585
    22  Br  -0.145078
    23  H    0.023178
    24  H    0.011967
 Sum of Mulliken charges =  -0.00000

 Dipole moment (field-independent basis, Debye):
    X=             -3.9721    Y=              0.2719    Z=             -0.7962  Tot=              4.0602
 Quadrupole moment (field-independent basis, Debye-Ang):
   XX=           -103.7473   YY=            -94.5564   ZZ=            -88.4277
   XY=             -4.2244   XZ=             -6.6404   YZ=             -1.4125

  Exact polarizability:     150.122      -7.782     158.306     -12.350     -13.807     123.312
 Approx polarizability:     150.157     -12.264     167.005     -14.240     -16.452     136.688

 ******    1 imaginary frequencies (negative Signs) ******

                      1                      2                      3
                      A                      A                      A
 Frequencies --     -6.3597                45.2809                70.7013
 Red. masses --     10.7656                 5.1847                10.4574
 Frc consts  --      0.0003                 0.0063                 0.0308
 IR Inten    --      0.2542                 2.4023                 0.9231

                      4                      5                      6
                      A                      A                      A
 Frequencies --     94.9995               110.0304               113.9776
 Red. masses --      5.7273                 3.7008                14.0414
 Frc consts  --      0.0305                 0.0264                 0.1075
 IR Inten    --      7.1355                 5.2432                 1.6237

                      7                      8                      9
                      A                      A                      A
 Frequencies --    155.0683               162.0149               231.3059
 Red. masses --      3.3358                 6.3421                 5.1956
 Frc consts  --      0.0473                 0.0981                 0.1638
 IR Inten    --      1.6635                 1.8064                 5.1454

                     10                     11                     12
                      A                      A                      A
 Frequencies --    262.9172               338.2750               357.6713
 Red. masses --      5.2878                 2.4653                 7.4095
 Frc consts  --      0.2154                 0.1662                 0.5585
 IR Inten    --      9.4278                 4.7525                13.2921

                     13                     14                     15
                      A                      A                      A
 Frequencies --    361.4757               451.9843               491.1710
 Red. masses --      4.2314                 2.6396                 2.4932
 Frc consts  --      0.3258                 0.3177                 0.3544
 IR Inten    --      4.7294                 4.1937                19.1533

                     16                     17                     18
                      A                      A                      A
 Frequencies --    504.7464               563.8423               587.2587
 Red. masses --      5.6711                 4.3700                 1.5158
 Frc consts  --      0.8513                 0.8186                 0.3080
 IR Inten    --     71.1037                25.7248               108.2216

                     19                     20                     21
                      A                      A                      A
 Frequencies --    639.9675               652.6897               692.0435
 Red. masses --      2.8075                 2.8689                 2.6231
 Frc consts  --      0.6775                 0.7201                 0.7402
 IR Inten    --      1.0321                13.0882                17.1582

                     22                     23                     24
                      A                      A                      A
 Frequencies --    696.0114               714.2563               741.6488
 Red. masses --      4.3671                 4.3456                 1.2382
 Frc consts  --      1.2465                 1.3062                 0.4013
 IR Inten    --      4.3177                18.7424                91.3708

                     25                     26                     27
                      A                      A                      A
 Frequencies --    784.6414               825.9374               829.7702
 Red. masses --      2.0599                 1.3259                 2.7978
 Frc consts  --      0.7472                 0.5329                 1.1350
 IR Inten    --     34.4339                19.5846                31.6195

                     28                     29                     30
                      A                      A                      A
 Frequencies --    884.4679               899.9142               913.0000
 Red. masses --      2.2772                 4.5151                 1.3793
 Frc consts  --      1.0496                 2.1544                 0.6774
 IR Inten    --     15.8927                 4.0723                 2.4271

                     31                     32                     33
                      A                      A                      A
 Frequencies --    963.5355               997.1090              1002.2686
 Red. masses --      2.4343                 1.3235                 2.0051
 Frc consts  --      1.3316                 0.7753                 1.1867
 IR Inten    --     28.9164                 2.7567                43.0143

                     34                     35                     36
                      A                      A                      A
 Frequencies --   1026.3676              1046.7115              1064.7138
 Red. masses --      1.9826                 1.3409                 3.1236
 Frc consts  --      1.2305                 0.8656                 2.0863
 IR Inten    --     12.1780                 3.8657               161.1341

                     37                     38                     39
                      A                      A                      A
 Frequencies --   1125.9467              1133.8775              1151.9106
 Red. masses --      1.8680                 1.5834                 1.3939
 Frc consts  --      1.3953                 1.1994                 1.0897
 IR Inten    --     16.4015                43.8264                32.7667

                     40                     41                     42
                      A                      A                      A
 Frequencies --   1197.1364              1251.7655              1270.9169
 Red. masses --      1.6665                 1.1747                 1.3196
 Frc consts  --      1.4071                 1.0845                 1.2558
 IR Inten    --     39.9042                23.4751                10.1716

                     43                     44                     45
                      A                      A                      A
 Frequencies --   1282.3829              1299.3029              1359.3747
 Red. masses --      2.5072                 1.4223                 1.5132
 Frc consts  --      2.4293                 1.4146                 1.6475
 IR Inten    --      6.0849                 2.6591                 5.6762

                     46                     47                     48
                      A                      A                      A
 Frequencies --   1383.8392              1399.8676              1444.3578
 Red. masses --      1.6637                 1.6894                 1.0914
 Frc consts  --      1.8772                 1.9505                 1.3415
 IR Inten    --     14.2045                38.4032                13.4104

                     49                     50                     51
                      A                      A                      A
 Frequencies --   1464.1549              1485.3276              1515.4733
 Red. masses --      1.2616                 2.6110                 3.6022
 Frc consts  --      1.5935                 3.3940                 4.8744
 IR Inten    --      8.2319                10.2772                 7.5177

                     52                     53                     54
                      A                      A                      A
 Frequencies --   1535.6735              1639.8661              1732.5437
 Red. masses --      5.9733                 4.1749                 8.4918
 Frc consts  --      8.2997                 6.6148                15.0183
 IR Inten    --      3.8467                 7.8120                30.3400

                     55                     56                     57
                      A                      A                      A
 Frequencies --   1853.9540              1914.0062              3058.8750
 Red. masses --     12.1618                13.0338                 1.0664
 Frc consts  --     24.6290                28.1324                 5.8788
 IR Inten    --    223.7318               586.0490                 7.3174

                     58                     59                     60
                      A                      A                      A
 Frequencies --   3076.8601              3134.2860              3150.9863
 Red. masses --      1.0635                 1.1042                 1.1007
 Frc consts  --      5.9321                 6.3910                 6.4390
 IR Inten    --     25.0325                11.1441                 9.4689

                     61                     62                     63
                      A                      A                      A
 Frequencies --   3193.1806              3214.4219              3253.0726
 Red. masses --      1.0859                 1.0949                 1.0937
 Frc consts  --      6.5238                 6.6657                 6.8190
 IR Inten    --      0.8412                 0.6981                 4.4592

                     64                     65                     66
                      A                      A                      A
 Frequencies --   3269.1203              3290.5953              3673.9897
 Red. masses --      1.0970                 1.1064                 1.0824
 Frc consts  --      6.9075                 7.0583                 8.6086
 IR Inten    --      1.9323                 0.3582               116.3423

 - Thermochemistry -
 -------------------
 Temperature   298.150 Kelvin.  Pressure   1.00000 Atm.
 Atom     1 has atomic number  6 and mass  12.00000

 Molecular mass:   254.98949 amu.
 Principal axes and moments of inertia in atomic units:
                           1         2         3
     Eigenvalues --  2487.088583933.526924695.48190
           X            0.99982   0.00155   0.01867
           Y           -0.00092   0.99943  -0.03387
           Z           -0.01872   0.03385   0.99925
 This molecule is an asymmetric top.
 Rotational symmetry number  1.
 Warning -- assumption of classical behavior for rotation
           may cause significant error
 Rotational temperatures (Kelvin)      0.03483     0.02202     0.01845
 Rotational constants (GHZ):           0.72564     0.45881     0.38436
    1 imaginary frequencies ignored.
 Zero-point vibrational energy     484696.0 (Joules/Mol)
                                  115.84512 (Kcal/Mol)
 Warning -- explicit consideration of  17 degrees of freedom as
           vibrations may cause significant error
 Vibrational temperatures:     65.15   101.72   136.68   158.31   163.99
          (Kelvin)            223.11   233.10   332.80   378.28   486.70
                              514.61   520.08   650.30   706.69   726.22
                              811.24   844.93   920.77   939.07   995.70
                             1001.41  1027.66  1067.07  1128.92  1188.34
                             1193.85  1272.55  1294.78  1313.60  1386.31
                             1434.62  1442.04  1476.71  1505.98  1531.89
                             1619.99  1631.40  1657.34  1722.41  1801.01
                             1828.57  1845.06  1869.41  1955.84  1991.04
                             2014.10  2078.11  2106.59  2137.06  2180.43
                             2209.49  2359.40  2492.74  2667.43  2753.83
                             4401.04  4426.92  4509.54  4533.57  4594.27
                             4624.84  4680.45  4703.53  4734.43  5286.05

 Zero-point correction=                           0.184611 (Hartree/Particle)
 Thermal correction to Energy=                    0.197116
 Thermal correction to Enthalpy=                  0.198060
 Thermal correction to Gibbs Free Energy=         0.144358
 Sum of electronic and zero-point Energies=          -3165.356933
 Sum of electronic and thermal Energies=             -3165.344428
 Sum of electronic and thermal Enthalpies=           -3165.343484
 Sum of electronic and thermal Free Energies=        -3165.397186

                     E (Thermal)             CV                S
                      KCal/Mol        Cal/Mol-Kelvin    Cal/Mol-Kelvin
 Total                  123.692             46.912            113.025
 Electronic               0.000              0.000              0.000
 Translational            0.889              2.981             42.508
 Rotational               0.889              2.981             32.196
 Vibrational            121.914             40.950             38.321
 Vibration     1          0.595              1.979              5.014
 Vibration     2          0.598              1.968              4.134
 Vibration     3          0.603              1.953              3.554
 Vibration     4          0.606              1.941              3.268
 Vibration     5          0.607              1.938              3.200
 Vibration     6          0.620              1.897              2.609
 Vibration     7          0.622              1.889              2.526
 Vibration     8          0.653              1.793              1.869
 Vibration     9          0.670              1.741              1.642
 Vibration    10          0.719              1.599              1.220
 Vibration    11          0.733              1.559              1.132
 Vibration    12          0.736              1.552              1.116
 Vibration    13          0.811              1.357              0.790
 Vibration    14          0.847              1.270              0.681
 Vibration    15          0.860              1.239              0.646
 Vibration    16          0.920              1.109              0.516
 Vibration    17          0.944              1.059              0.472

 Normal termination of Gaussian 16 at Sat Dec 30 21:00:35 2023.
