 Gaussian 16, Revision C.01,
 Gaussian 16:  ES64L-G16RevC.01  3-Jul-2019

 -----------------------------------------------------------
 # wb97xd def2svp scrf=(iefpcm,solvent=toluene) freq=noraman
 -----------------------------------------------------------

 --------------------------
 imda-2_1_opt_sqm_reopt.out
 --------------------------
 Symbolic Z-matrix:
 Charge =  0 Multiplicity = 1

                         Standard orientation:
 ---------------------------------------------------------------------
 Center     Atomic      Atomic             Coordinates (Angstroms)
 Number     Number       Type             X           Y           Z
 ---------------------------------------------------------------------
      1          6           0       -2.056442   -2.095265   -0.335920
      2          6           0        0.388191   -0.583720    1.612640
      3          6           0       -2.057038    0.124195   -0.675410
      4          6           0       -0.281697    0.574801    1.567770
      5          6           0       -3.063531   -1.567793    0.444750
      6          6           0       -3.066499   -0.162523    0.228930
      7          6           0       -1.549515    1.438374   -1.189730
      8          1           0       -0.725696    1.260362   -1.896760
      9          1           0       -2.338584    1.953505   -1.758980
     10          6           0       -1.072334    2.389203   -0.080350
     11          1           0       -0.702802    3.333222   -0.504190
     12          1           0       -1.927773    2.633414    0.574400
     13          6           0        0.019795    1.850031    0.821820
     14          8           0        1.035517    2.460268    1.052390
     15          1           0       -1.152827    0.654653    2.226760
     16          1           0        0.064779   -1.352180    2.319950
     17          6           0        1.573950   -1.029363    0.858690
     18          8           0        2.294568   -1.908954    1.186290
     19          7           0       -1.473260   -1.062767   -1.015820
     20          1           0       -0.664601   -1.146448   -1.619220
     21          1           0       -1.726305   -3.121366   -0.477160
     22         35           0        1.922821   -0.149973   -0.884640
     23          1           0       -3.730373   -2.132702    1.092690
     24          1           0       -3.731697    0.567828    0.687040
 ---------------------------------------------------------------------

 SCF Done:  E(RwB97XD) =  -3165.54154328     A.U. after   16 cycles

 The electronic state is 1-A.
 Alpha  occ. eigenvalues -- -483.06643 -62.64874 -56.45600 -56.45317 -56.45282
 Alpha  occ. eigenvalues --  -19.29968 -19.26608 -14.49553 -10.45748 -10.41013
 Alpha  occ. eigenvalues --  -10.34944 -10.34314 -10.33035 -10.32325 -10.32321
 Alpha  occ. eigenvalues --  -10.31915 -10.28807 -10.28776  -8.81822  -6.64233
 Alpha  occ. eigenvalues --   -6.63171  -6.63058  -2.74626  -2.74347  -2.74260
 Alpha  occ. eigenvalues --   -2.73415  -2.73413  -1.19632  -1.15515  -1.08131
 Alpha  occ. eigenvalues --   -0.93083  -0.90652  -0.88337  -0.87011  -0.82599
 Alpha  occ. eigenvalues --   -0.78382  -0.74239  -0.68313  -0.67961  -0.66536
 Alpha  occ. eigenvalues --   -0.62006  -0.60956  -0.59637  -0.58490  -0.56164
 Alpha  occ. eigenvalues --   -0.55139  -0.54307  -0.53583  -0.52194  -0.51884
 Alpha  occ. eigenvalues --   -0.50847  -0.49974  -0.48101  -0.47569  -0.46974
 Alpha  occ. eigenvalues --   -0.45601  -0.44047  -0.39229  -0.38860  -0.38150
 Alpha  occ. eigenvalues --   -0.37202  -0.35018  -0.33367  -0.29254
 Alpha virt. eigenvalues --   -0.02314   0.04108   0.06148   0.09761   0.11654
 Alpha virt. eigenvalues --    0.13407   0.13805   0.14798   0.15695   0.17575
 Alpha virt. eigenvalues --    0.19705   0.20164   0.20581   0.21565   0.23373

 Mulliken charges:
               1
     1  C    0.027579
     2  C   -0.040015
     3  C   -0.083643
     4  C    0.025484
     5  C   -0.077350
     6  C   -0.113528
     7  C    0.112098
     8  H    0.026462
     9  H    0.058470
    10  C   -0.034509
    11  H    0.056272
    12  H    0.074549
    13  C    0.062796
    14  O   -0.206331
    15  H    0.088510
    16  H    0.078527
    17  C    0.121404
    18  O   -0.142375
    19  N   -0.115791
    20  H    0.148846
    21  H    0.042421
    22  Br  -0.144941
    23  H    0.023141
    24  H    0.011925
 Sum of Mulliken charges =  -0.00000

 Dipole moment (field-independent basis, Debye):
    X=             -3.9761    Y=              0.2448    Z=             -0.7859  Tot=              4.0604
 Quadrupole moment (field-independent basis, Debye-Ang):
   XX=           -103.8903   YY=            -94.4317   ZZ=            -88.4611
   XY=             -4.2663   XZ=             -6.6473   YZ=             -1.3893

  Exact polarizability:     150.339      -7.912     157.834     -12.190     -13.873     123.480
 Approx polarizability:     150.411     -12.411     166.260     -13.980     -16.525     136.931

 ******    1 imaginary frequencies (negative Signs) ******

                      1                      2                      3
                      A                      A                      A
 Frequencies --    -11.5550                46.1631                71.1559
 Red. masses --     10.7009                 5.2237                10.2116
 Frc consts  --      0.0008                 0.0066                 0.0305
 IR Inten    --      0.2860                 2.3431                 1.1573

                      4                      5                      6
                      A                      A                      A
 Frequencies --     94.7280               111.4830               113.8053
 Red. masses --      5.8485                 3.7473                14.0847
 Frc consts  --      0.0309                 0.0274                 0.1075
 IR Inten    --      6.1731                 5.6717                 1.5996

                      7                      8                      9
                      A                      A                      A
 Frequencies --    155.6778               161.3146               231.8875
 Red. masses --      3.3541                 6.2821                 5.1936
 Frc consts  --      0.0479                 0.0963                 0.1645
 IR Inten    --      1.6024                 1.7214                 5.2953

                     10                     11                     12
                      A                      A                      A
 Frequencies --    263.1072               339.3276               357.8776
 Red. masses --      5.3061                 2.5143                 7.0501
 Frc consts  --      0.2164                 0.1706                 0.5320
 IR Inten    --      9.5467                 4.8892                12.1901

                     13                     14                     15
                      A                      A                      A
 Frequencies --    361.2379               451.6724               492.2345
 Red. masses --      4.2065                 2.6366                 2.4654
 Frc consts  --      0.3234                 0.3169                 0.3520
 IR Inten    --      5.7052                 4.0054                17.9552

                     16                     17                     18
                      A                      A                      A
 Frequencies --    503.9698               563.5886               591.5217
 Red. masses --      5.8017                 4.4237                 1.5617
 Frc consts  --      0.8682                 0.8279                 0.3219
 IR Inten    --     71.6160                25.8787               104.2277

                     19                     20                     21
                      A                      A                      A
 Frequencies --    640.3876               653.7979               692.6689
 Red. masses --      2.8352                 2.6972                 2.6015
 Frc consts  --      0.6850                 0.6793                 0.7354
 IR Inten    --      1.2509                14.6850                17.9845

                     22                     23                     24
                      A                      A                      A
 Frequencies --    696.9735               714.7001               741.6449
 Red. masses --      4.3410                 4.3042                 1.2389
 Frc consts  --      1.2424                 1.2954                 0.4015
 IR Inten    --      4.3337                19.7854                91.5833

                     25                     26                     27
                      A                      A                      A
 Frequencies --    784.9592               826.1559               830.2984
 Red. masses --      2.0558                 1.3213                 2.8214
 Frc consts  --      0.7463                 0.5313                 1.1460
 IR Inten    --     35.4694                20.1239                32.1133

                     28                     29                     30
                      A                      A                      A
 Frequencies --    884.7996               899.9906               912.9885
 Red. masses --      2.2808                 4.4904                 1.3800
 Frc consts  --      1.0520                 2.1430                 0.6777
 IR Inten    --     15.6764                 4.0837                 2.3336

                     31                     32                     33
                      A                      A                      A
 Frequencies --    963.4453               997.4624              1002.4513
 Red. masses --      2.4356                 1.3203                 2.0074
 Frc consts  --      1.3320                 0.7740                 1.1886
 IR Inten    --     28.8923                 2.2209                43.8102

                     34                     35                     36
                      A                      A                      A
 Frequencies --   1026.3123              1046.6700              1064.2693
 Red. masses --      1.9855                 1.3429                 3.1158
 Frc consts  --      1.2322                 0.8668                 2.0793
 IR Inten    --     12.6049                 3.7596               160.0006

                     37                     38                     39
                      A                      A                      A
 Frequencies --   1125.9953              1133.9693              1152.2307
 Red. masses --      1.8667                 1.5887                 1.3913
 Frc consts  --      1.3945                 1.2036                 1.0883
 IR Inten    --     16.1898                44.4095                32.1083

                     40                     41                     42
                      A                      A                      A
 Frequencies --   1197.0637              1251.2316              1270.5898
 Red. masses --      1.6645                 1.1722                 1.3209
 Frc consts  --      1.4053                 1.0812                 1.2564
 IR Inten    --     39.6256                23.2509                10.0582

                     43                     44                     45
                      A                      A                      A
 Frequencies --   1282.4481              1299.6037              1359.3290
 Red. masses --      2.5099                 1.4247                 1.5106
 Frc consts  --      2.4321                 1.4177                 1.6446
 IR Inten    --      5.9506                 2.5728                 5.7276

                     46                     47                     48
                      A                      A                      A
 Frequencies --   1384.0229              1399.9481              1444.4657
 Red. masses --      1.6631                 1.6934                 1.0919
 Frc consts  --      1.8770                 1.9554                 1.3423
 IR Inten    --     14.1009                38.5791                13.5133

                     49                     50                     51
                      A                      A                      A
 Frequencies --   1464.9821              1485.7573              1515.5091
 Red. masses --      1.2729                 2.5590                 3.5941
 Frc consts  --      1.6096                 3.3282                 4.8636
 IR Inten    --      8.0860                10.3505                 7.5784

                     52                     53                     54
                      A                      A                      A
 Frequencies --   1535.6940              1639.9642              1732.5616
 Red. masses --      5.9637                 4.1644                 8.4914
 Frc consts  --      8.2866                 6.5989                15.0179
 IR Inten    --      3.7998                 7.6985                30.2012

                     55                     56                     57
                      A                      A                      A
 Frequencies --   1853.8064              1914.5600              3059.0317
 Red. masses --     12.1514                13.0379                 1.0663
 Frc consts  --     24.6040                28.1577                 5.8790
 IR Inten    --    222.9427               585.8611                 7.3789

                     58                     59                     60
                      A                      A                      A
 Frequencies --   3076.7128              3134.0000              3150.8765
 Red. masses --      1.0635                 1.1043                 1.1008
 Frc consts  --      5.9313                 6.3904                 6.4391
 IR Inten    --     25.0012                11.2148                 9.4698

                     61                     62                     63
                      A                      A                      A
 Frequencies --   3193.6131              3214.0043              3252.9719
 Red. masses --      1.0858                 1.0951                 1.0937
 Frc consts  --      6.5250                 6.6649                 6.8186
 IR Inten    --      0.7680                 0.7466                 4.4758

                     64                     65                     66
                      A                      A                      A
 Frequencies --   3268.9962              3290.4271              3673.9946
 Red. masses --      1.0970                 1.1064                 1.0824
 Frc consts  --      6.9069                 7.0576                 8.6085
 IR Inten    --      1.9366                 0.3650               116.4250

 - Thermochemistry -
 -------------------
 Temperature   298.150 Kelvin.  Pressure   1.00000 Atm.
 Atom     1 has atomic number  6 and mass  12.00000

 Molecular mass:   254.98949 amu.
 Principal axes and moments of inertia in atomic units:
                           1         2         3
     Eigenvalues --  2482.682423953.464414703.95215
           X            0.99982   0.00168   0.01872
           Y           -0.00103   0.99940  -0.03459
           Z           -0.01876   0.03456   0.99923
 This molecule is an asymmetric top.
 Rotational symmetry number  1.
 Warning -- assumption of classical behavior for rotation
           may cause significant error
 Rotational temperatures (Kelvin)      0.03489     0.02191     0.01841
 Rotational constants (GHZ):           0.72693     0.45650     0.38366
    1 imaginary frequencies ignored.
 Zero-point vibrational energy     484781.2 (Joules/Mol)
                                  115.86549 (Kcal/Mol)
 Warning -- explicit consideration of  17 degrees of freedom as
           vibrations may cause significant error
 Vibrational temperatures:     66.42   102.38   136.29   160.40   163.74
          (Kelvin)            223.99   232.10   333.63   378.55   488.22
                              514.91   519.74   649.86   708.22   725.10
                              810.88   851.07   921.37   940.67   996.60
                             1002.79  1028.29  1067.06  1129.38  1188.65
                             1194.61  1273.03  1294.89  1313.59  1386.18
                             1435.13  1442.30  1476.63  1505.92  1531.25
                             1620.06  1631.53  1657.80  1722.31  1800.24
                             1828.10  1845.16  1869.84  1955.77  1991.30
                             2014.21  2078.26  2107.78  2137.67  2180.48
                             2209.52  2359.54  2492.77  2667.21  2754.62
                             4401.26  4426.70  4509.13  4533.41  4594.90
                             4624.24  4680.30  4703.36  4734.19  5286.06

 Zero-point correction=                           0.184643 (Hartree/Particle)
 Thermal correction to Energy=                    0.197137
 Thermal correction to Enthalpy=                  0.198081
 Thermal correction to Gibbs Free Energy=         0.144420
 Sum of electronic and zero-point Energies=          -3165.356900
 Sum of electronic and thermal Energies=             -3165.344406
 Sum of electronic and thermal Enthalpies=           -3165.343462
 Sum of electronic and thermal Free Energies=        -3165.397123

                     E (Thermal)             CV                S
                      KCal/Mol        Cal/Mol-Kelvin    Cal/Mol-Kelvin
 Total                  123.705             46.889            112.940
 Electronic               0.000              0.000              0.000
 Translational            0.889              2.981             42.508
 Rotational               0.889              2.981             32.201
 Vibrational            121.928             40.927             38.231
 Vibration     1          0.595              1.979              4.975
 Vibration     2          0.598              1.968              4.121
 Vibration     3          0.603              1.953              3.560
 Vibration     4          0.607              1.940              3.243
 Vibration     5          0.607              1.938              3.203
 Vibration     6          0.620              1.896              2.602
 Vibration     7          0.622              1.890              2.534
 Vibration     8          0.653              1.792              1.864
 Vibration     9          0.670              1.740              1.641
 Vibration    10          0.719              1.597              1.215
 Vibration    11          0.733              1.559              1.131
 Vibration    12          0.735              1.552              1.117
 Vibration    13          0.810              1.357              0.791
 Vibration    14          0.848              1.267              0.678
 Vibration    15          0.859              1.241              0.648
 Vibration    16          0.919              1.110              0.517
 Vibration    17          0.949              1.050              0.464

 Normal termination of Gaussian 16 at Sat Dec 30 21:00:35 2023.
