 Gaussian 16, Revision C.01,
 Gaussian 16:  ES64L-G16RevC.01  3-Jul-2019

 ----------------------------------------------------------------------
 # wb97xd def2svp geom=allchk scrf=(iefpcm,solvent=toluene) opt=(readfc
 ,ts,noeigen,maxcycles=50,maxstep=10)
 ----------------------------------------------------------------------

 Structure from the checkpoint file:  "imda-2_1_sqm.chk"
 ---------------------
 3g_exo_ts_6_reopt.out
 ---------------------
 Charge =  0 Multiplicity = 1

 SCF Done:  E(RwB97XD) =  -3165.54154316     A.U. after   16 cycles
 SCF Done:  E(RwB97XD) =  -3165.54154328     A.U. after   10 cycles
 Optimization completed.
    -- Stationary point found.

                         Standard orientation:
 ---------------------------------------------------------------------
 Center     Atomic      Atomic             Coordinates (Angstroms)
 Number     Number       Type             X           Y           Z
 ---------------------------------------------------------------------
      1          6           0       -2.056438   -2.095266   -0.335915
      2          6           0        0.388192   -0.583718    1.612641
      3          6           0       -2.057036    0.124190   -0.675411
      4          6           0       -0.281699    0.574802    1.567767
      5          6           0       -3.063526   -1.567799    0.444754
      6          6           0       -3.066495   -0.162525    0.228929
      7          6           0       -1.549518    1.438373   -1.189732
      8          1           0       -0.725696    1.260365   -1.896761
      9          1           0       -2.338585    1.953501   -1.758979
     10          6           0       -1.072343    2.389198   -0.080353
     11          1           0       -0.702815    3.333217   -0.504187
     12          1           0       -1.927784    2.633415    0.574400
     13          6           0        0.019790    1.850032    0.821822
     14          8           0        1.035513    2.460271    1.052388
     15          1           0       -1.152832    0.654651    2.226757
     16          1           0        0.064785   -1.352177    2.319954
     17          6           0        1.573947   -1.029356    0.858689
     18          8           0        2.294570   -1.908949    1.186293
     19          7           0       -1.473256   -1.062768   -1.015821
     20          1           0       -0.664603   -1.146453   -1.619217
     21          1           0       -1.726299   -3.121367   -0.477164
     22         35           0        1.922822   -0.149972   -0.884640
     23          1           0       -3.730370   -2.132706    1.092688
     24          1           0       -3.731704    0.567817    0.687043
 ---------------------------------------------------------------------

 The electronic state is 1-A.
 Alpha  occ. eigenvalues -- -483.06643 -62.64874 -56.45600 -56.45317 -56.45282
 Alpha  occ. eigenvalues --  -19.29968 -19.26608 -14.49553 -10.45748 -10.41013
 Alpha  occ. eigenvalues --  -10.34944 -10.34314 -10.33035 -10.32325 -10.32321
 Alpha  occ. eigenvalues --  -10.31915 -10.28807 -10.28776  -8.81822  -6.64233
 Alpha  occ. eigenvalues --   -6.63171  -6.63058  -2.74626  -2.74347  -2.74260
 Alpha  occ. eigenvalues --   -2.73415  -2.73413  -1.19631  -1.15515  -1.08131
 Alpha  occ. eigenvalues --   -0.93083  -0.90652  -0.88337  -0.87011  -0.82599
 Alpha  occ. eigenvalues --   -0.78382  -0.74239  -0.68313  -0.67961  -0.66536
 Alpha  occ. eigenvalues --   -0.62006  -0.60956  -0.59637  -0.58490  -0.56164
 Alpha  occ. eigenvalues --   -0.55139  -0.54307  -0.53583  -0.52194  -0.51884
 Alpha  occ. eigenvalues --   -0.50847  -0.49974  -0.48101  -0.47569  -0.46974
 Alpha  occ. eigenvalues --   -0.45601  -0.44047  -0.39229  -0.38860  -0.38150
 Alpha  occ. eigenvalues --   -0.37202  -0.35018  -0.33367  -0.29254
 Alpha virt. eigenvalues --   -0.02314   0.04108   0.06148   0.09761   0.11654
 Alpha virt. eigenvalues --    0.13407   0.13805   0.14798   0.15695   0.17574
 Alpha virt. eigenvalues --    0.19705   0.20164   0.20581   0.21565   0.23373

 Mulliken charges:
               1
     1  C    0.027579
     2  C   -0.040012
     3  C   -0.083642
     4  C    0.025483
     5  C   -0.077349
     6  C   -0.113533
     7  C    0.112105
     8  H    0.026462
     9  H    0.058469
    10  C   -0.034512
    11  H    0.056270
    12  H    0.074549
    13  C    0.062795
    14  O   -0.206331
    15  H    0.088511
    16  H    0.078527
    17  C    0.121404
    18  O   -0.142382
    19  N   -0.115788
    20  H    0.148842
    21  H    0.042421
    22  Br  -0.144937
    23  H    0.023140
    24  H    0.011927
 Sum of Mulliken charges =  -0.00000

 Dipole moment (field-independent basis, Debye):
    X=             -3.9761    Y=              0.2448    Z=             -0.7859  Tot=              4.0604
 Quadrupole moment (field-independent basis, Debye-Ang):
   XX=           -103.8901   YY=            -94.4318   ZZ=            -88.4611
   XY=             -4.2662   XZ=             -6.6474   YZ=             -1.3892

 Normal termination of Gaussian 16 at Thu Dec 28 13:53:17 2023.
