 Gaussian 16, Revision C.01,
 Gaussian 16:  ES64L-G16RevC.01  3-Jul-2019

 -----------------------------------------------------------
 # wb97xd def2svp scrf=(iefpcm,solvent=toluene) freq=noraman
 -----------------------------------------------------------

 -------------------
 imda-2_1_opt_hf.out
 -------------------
 Symbolic Z-matrix:
 Charge =  0 Multiplicity = 1

                         Standard orientation:
 ---------------------------------------------------------------------
 Center     Atomic      Atomic             Coordinates (Angstroms)
 Number     Number       Type             X           Y           Z
 ---------------------------------------------------------------------
      1          6           0       -2.055339   -2.094381   -0.337129
      2          6           0        0.385929   -0.584638    1.612631
      3          6           0       -2.055391    0.125089   -0.676529
      4          6           0       -0.281902    0.575121    1.568161
      5          6           0       -3.062229   -1.566692    0.443631
      6          6           0       -3.064811   -0.161412    0.227931
      7          6           0       -1.547373    1.439160   -1.190629
      8          1           0       -0.723423    1.260961   -1.897479
      9          1           0       -2.336164    1.954569   -1.759999
     10          6           0       -1.070244    2.389720   -0.081039
     11          1           0       -0.699905    3.333541   -0.504529
     12          1           0       -1.926005    2.634529    0.573101
     13          6           0        0.020706    1.850201    0.822371
     14          8           0        1.035866    2.460623    1.054861
     15          1           0       -1.152132    0.656620    2.228191
     16          1           0        0.061650   -1.352419    2.320181
     17          6           0        1.569760   -1.032897    0.857381
     18          8           0        2.286601   -1.916656    1.182181
     19          7           0       -1.471970   -1.061990   -1.017079
     20          1           0       -0.663600   -1.145889   -1.620759
     21          1           0       -1.725468   -3.120551   -0.478449
     22         35           0        1.923239   -0.148926   -0.882729
     23          1           0       -3.729199   -2.131463    1.091551
     24          1           0       -3.729692    0.569097    0.686271
 ---------------------------------------------------------------------

 SCF Done:  E(RwB97XD) =  -3165.54154339     A.U. after   16 cycles

 The electronic state is 1-A.
 Alpha  occ. eigenvalues -- -483.06640 -62.64871 -56.45597 -56.45315 -56.45280
 Alpha  occ. eigenvalues --  -19.29963 -19.26607 -14.49556 -10.45744 -10.41015
 Alpha  occ. eigenvalues --  -10.34948 -10.34308 -10.33037 -10.32326 -10.32323
 Alpha  occ. eigenvalues --  -10.31916 -10.28809 -10.28778  -8.81819  -6.64231
 Alpha  occ. eigenvalues --   -6.63169  -6.63056  -2.74624  -2.74345  -2.74257
 Alpha  occ. eigenvalues --   -2.73412  -2.73411  -1.19625  -1.15515  -1.08134
 Alpha  occ. eigenvalues --   -0.93082  -0.90652  -0.88335  -0.87013  -0.82600
 Alpha  occ. eigenvalues --   -0.78384  -0.74241  -0.68316  -0.67961  -0.66538
 Alpha  occ. eigenvalues --   -0.62006  -0.60954  -0.59639  -0.58486  -0.56164
 Alpha  occ. eigenvalues --   -0.55130  -0.54307  -0.53587  -0.52195  -0.51887
 Alpha  occ. eigenvalues --   -0.50846  -0.49974  -0.48102  -0.47570  -0.46975
 Alpha  occ. eigenvalues --   -0.45603  -0.44046  -0.39222  -0.38860  -0.38149
 Alpha  occ. eigenvalues --   -0.37201  -0.35018  -0.33369  -0.29256
 Alpha virt. eigenvalues --   -0.02310   0.04107   0.06153   0.09765   0.11658
 Alpha virt. eigenvalues --    0.13408   0.13800   0.14790   0.15690   0.17575
 Alpha virt. eigenvalues --    0.19703   0.20164   0.20580   0.21565   0.23374

 Mulliken charges:
               1
     1  C    0.027619
     2  C   -0.039627
     3  C   -0.083701
     4  C    0.025288
     5  C   -0.077339
     6  C   -0.113397
     7  C    0.112163
     8  H    0.026486
     9  H    0.058450
    10  C   -0.034583
    11  H    0.056276
    12  H    0.074581
    13  C    0.062965
    14  O   -0.206354
    15  H    0.088624
    16  H    0.078336
    17  C    0.121047
    18  O   -0.142457
    19  N   -0.115834
    20  H    0.148885
    21  H    0.042461
    22  Br  -0.144976
    23  H    0.023149
    24  H    0.011940
 Sum of Mulliken charges =  -0.00000

 Dipole moment (field-independent basis, Debye):
    X=             -3.9752    Y=              0.2526    Z=             -0.7876  Tot=              4.0603
 Quadrupole moment (field-independent basis, Debye-Ang):
   XX=           -103.8556   YY=            -94.4619   ZZ=            -88.4507
   XY=             -4.2540   XZ=             -6.6456   YZ=             -1.3942

  Exact polarizability:     150.282      -7.882     157.958     -12.234     -13.853     123.436
 Approx polarizability:     150.344     -12.376     166.455     -14.050     -16.504     136.867

 ******    1 imaginary frequencies (negative Signs) ******

                      1                      2                      3
                      A                      A                      A
 Frequencies --     -9.9875                45.8373                71.0183
 Red. masses --     10.7045                 5.2111                10.2934
 Frc consts  --      0.0006                 0.0065                 0.0306
 IR Inten    --      0.2750                 2.3638                 1.0925

                      4                      5                      6
                      A                      A                      A
 Frequencies --     94.7840               111.0345               113.7759
 Red. masses --      5.8216                 3.7255                14.1713
 Frc consts  --      0.0308                 0.0271                 0.1081
 IR Inten    --      6.4076                 5.5944                 1.6051

                      7                      8                      9
                      A                      A                      A
 Frequencies --    155.4504               161.4829               231.7261
 Red. masses --      3.3493                 6.2971                 5.1926
 Frc consts  --      0.0477                 0.0967                 0.1643
 IR Inten    --      1.6164                 1.7437                 5.2589

                     10                     11                     12
                      A                      A                      A
 Frequencies --    263.0481               339.0147               357.8201
 Red. masses --      5.3010                 2.5003                 7.1505
 Frc consts  --      0.2161                 0.1693                 0.5394
 IR Inten    --      9.5120                 4.8520                12.6020

                     13                     14                     15
                      A                      A                      A
 Frequencies --    361.2998               451.6991               491.9523
 Red. masses --      4.2128                 2.6372                 2.4723
 Frc consts  --      0.3240                 0.3170                 0.3525
 IR Inten    --      5.3420                 4.0586                18.2869

                     16                     17                     18
                      A                      A                      A
 Frequencies --    504.1767               563.6367               590.0845
 Red. masses --      5.7658                 4.4093                 1.5450
 Frc consts  --      0.8635                 0.8253                 0.3170
 IR Inten    --     71.4970                25.8660               105.5472

                     19                     20                     21
                      A                      A                      A
 Frequencies --    640.2606               653.4145               692.4915
 Red. masses --      2.8264                 2.7521                 2.6098
 Frc consts  --      0.6826                 0.6923                 0.7374
 IR Inten    --      1.1772                14.1084                17.6461

                     22                     23                     24
                      A                      A                      A
 Frequencies --    696.7221               714.5645               741.6401
 Red. masses --      4.3506                 4.3154                 1.2387
 Frc consts  --      1.2443                 1.2982                 0.4014
 IR Inten    --      4.3439                19.4973                91.4564

                     25                     26                     27
                      A                      A                      A
 Frequencies --    784.8598               826.1231               830.1529
 Red. masses --      2.0572                 1.3221                 2.8174
 Frc consts  --      0.7466                 0.5316                 1.1440
 IR Inten    --     35.2104                19.9615                31.9843

                     28                     29                     30
                      A                      A                      A
 Frequencies --    884.7053               899.9669               912.9980
 Red. masses --      2.2795                 4.4973                 1.3798
 Frc consts  --      1.0512                 2.1461                 0.6777
 IR Inten    --     15.7170                 4.0753                 2.3668

                     31                     32                     33
                      A                      A                      A
 Frequencies --    963.4604               997.3375              1002.3876
 Red. masses --      2.4350                 1.3211                 2.0071
 Frc consts  --      1.3318                 0.7742                 1.1882
 IR Inten    --     28.8963                 2.3315                43.5968

                     34                     35                     36
                      A                      A                      A
 Frequencies --   1026.3121              1046.6898              1064.3938
 Red. masses --      1.9847                 1.3423                 3.1175
 Frc consts  --      1.2317                 0.8664                 2.0810
 IR Inten    --     12.4719                 3.7942               160.2975

                     37                     38                     39
                      A                      A                      A
 Frequencies --   1125.9791              1133.9553              1152.1039
 Red. masses --      1.8672                 1.5867                 1.3920
 Frc consts  --      1.3948                 1.2021                 1.0886
 IR Inten    --     16.2478                44.2273                32.2970

                     40                     41                     42
                      A                      A                      A
 Frequencies --   1197.0815              1251.2903              1270.6352
 Red. masses --      1.6649                 1.1728                 1.3208
 Frc consts  --      1.4057                 1.0819                 1.2564
 IR Inten    --     39.7175                23.2994                10.0825

                     43                     44                     45
                      A                      A                      A
 Frequencies --   1282.4342              1299.4924              1359.3342
 Red. masses --      2.5094                 1.4238                 1.5112
 Frc consts  --      2.4316                 1.4166                 1.6452
 IR Inten    --      5.9817                 2.5930                 5.7182

                     46                     47                     48
                      A                      A                      A
 Frequencies --   1383.9543              1399.8981              1444.4313
 Red. masses --      1.6630                 1.6929                 1.0918
 Frc consts  --      1.8767                 1.9547                 1.3421
 IR Inten    --     14.1167                38.5638                13.4968

                     49                     50                     51
                      A                      A                      A
 Frequencies --   1464.7668              1485.6067              1515.5048
 Red. masses --      1.2702                 2.5726                 3.5956
 Frc consts  --      1.6056                 3.3453                 4.8657
 IR Inten    --      8.1248                10.3351                 7.5536

                     52                     53                     54
                      A                      A                      A
 Frequencies --   1535.6899              1639.9251              1732.5113
 Red. masses --      5.9678                 4.1686                 8.4912
 Frc consts  --      8.2923                 6.6052                15.0166
 IR Inten    --      3.8178                 7.7225                30.2245

                     55                     56                     57
                      A                      A                      A
 Frequencies --   1853.8397              1914.3001              3058.9649
 Red. masses --     12.1543                13.0368                 1.0664
 Frc consts  --     24.6107                28.1476                 5.8791
 IR Inten    --    223.1365               585.9199                 7.3496

                     58                     59                     60
                      A                      A                      A
 Frequencies --   3076.7206              3134.0077              3151.1013
 Red. masses --      1.0635                 1.1043                 1.1007
 Frc consts  --      5.9312                 6.3904                 6.4396
 IR Inten    --     25.0082                11.2003                 9.4768

                     61                     62                     63
                      A                      A                      A
 Frequencies --   3193.5110              3214.4545              3252.9245
 Red. masses --      1.0859                 1.0950                 1.0937
 Frc consts  --      6.5251                 6.6662                 6.8185
 IR Inten    --      0.7983                 0.7257                 4.4666

                     64                     65                     66
                      A                      A                      A
 Frequencies --   3269.0258              3290.4874              3674.4697
 Red. masses --      1.0970                 1.1064                 1.0824
 Frc consts  --      6.9069                 7.0579                 8.6108
 IR Inten    --      1.9414                 0.3634               116.4255

 - Thermochemistry -
 -------------------
 Temperature   298.150 Kelvin.  Pressure   1.00000 Atm.
 Atom     1 has atomic number  6 and mass  12.00000

 Molecular mass:   254.98949 amu.
 Principal axes and moments of inertia in atomic units:
                           1         2         3
     Eigenvalues --  2483.718313948.225484701.51912
           X            0.99982   0.00165   0.01871
           Y           -0.00100   0.99941  -0.03440
           Z           -0.01875   0.03437   0.99923
 This molecule is an asymmetric top.
 Rotational symmetry number  1.
 Warning -- assumption of classical behavior for rotation
           may cause significant error
 Rotational temperatures (Kelvin)      0.03487     0.02194     0.01842
 Rotational constants (GHZ):           0.72663     0.45710     0.38386
    1 imaginary frequencies ignored.
 Zero-point vibrational energy     484755.1 (Joules/Mol)
                                  115.85925 (Kcal/Mol)
 Warning -- explicit consideration of  17 degrees of freedom as
           vibrations may cause significant error
 Vibrational temperatures:     65.95   102.18   136.37   159.75   163.70
          (Kelvin)            223.66   232.34   333.40   378.47   487.77
                              514.82   519.83   649.89   707.81   725.40
                              810.95   849.00   921.19   940.12   996.34
                             1002.43  1028.10  1067.05  1129.24  1188.61
                             1194.40  1272.89  1294.85  1313.60  1386.20
                             1434.95  1442.21  1476.63  1505.95  1531.43
                             1620.03  1631.51  1657.62  1722.33  1800.33
                             1828.16  1845.14  1869.68  1955.78  1991.20
                             2014.14  2078.21  2107.47  2137.46  2180.47
                             2209.52  2359.49  2492.70  2667.26  2754.25
                             4401.17  4426.71  4509.14  4533.73  4594.75
                             4624.88  4680.23  4703.40  4734.28  5286.74

 Zero-point correction=                           0.184633 (Hartree/Particle)
 Thermal correction to Energy=                    0.197131
 Thermal correction to Enthalpy=                  0.198075
 Thermal correction to Gibbs Free Energy=         0.144399
 Sum of electronic and zero-point Energies=          -3165.356910
 Sum of electronic and thermal Energies=             -3165.344412
 Sum of electronic and thermal Enthalpies=           -3165.343468
 Sum of electronic and thermal Free Energies=        -3165.397145

                     E (Thermal)             CV                S
                      KCal/Mol        Cal/Mol-Kelvin    Cal/Mol-Kelvin
 Total                  123.702             46.896            112.972
 Electronic               0.000              0.000              0.000
 Translational            0.889              2.981             42.508
 Rotational               0.889              2.981             32.200
 Vibrational            121.924             40.935             38.264
 Vibration     1          0.595              1.979              4.989
 Vibration     2          0.598              1.968              4.125
 Vibration     3          0.603              1.953              3.559
 Vibration     4          0.607              1.940              3.251
 Vibration     5          0.607              1.938              3.203
 Vibration     6          0.620              1.897              2.604
 Vibration     7          0.622              1.890              2.532
 Vibration     8          0.653              1.792              1.866
 Vibration     9          0.670              1.741              1.641
 Vibration    10          0.719              1.598              1.217
 Vibration    11          0.733              1.559              1.132
 Vibration    12          0.735              1.552              1.117
 Vibration    13          0.810              1.357              0.791
 Vibration    14          0.848              1.268              0.679
 Vibration    15          0.859              1.241              0.648
 Vibration    16          0.919              1.110              0.517
 Vibration    17          0.947              1.053              0.467

 Normal termination of Gaussian 16 at Sat Dec 30 21:00:28 2023.
