 Gaussian 16, Revision C.01,
 Gaussian 16:  ES64L-G16RevC.01  3-Jul-2019

 -----------------------------------------------------------
 # wb97xd def2svp scrf=(iefpcm,solvent=toluene) freq=noraman
 -----------------------------------------------------------

 -------------------------
 da-1_1_opt_dft_reopt2.out
 -------------------------
 Symbolic Z-matrix:
 Charge =  0 Multiplicity = 1

                         Standard orientation:
 ---------------------------------------------------------------------
 Center     Atomic      Atomic             Coordinates (Angstroms)
 Number     Number       Type             X           Y           Z
 ---------------------------------------------------------------------
      1          8           0        2.304211    1.237726   -0.098850
      2          6           0       -1.470269    1.909740   -0.255350
      3          6           0        1.799718   -1.529744   -0.644980
      4          6           0       -1.445160    0.607869   -0.556600
      5          6           0        1.702960    0.539316    0.682130
      6          6           0        1.398058   -0.896853    0.461010
      7          1           0        1.329650    0.959867    1.647410
      8          1           0        2.371338   -0.991364   -1.406810
      9          1           0        0.821838   -1.412513    1.234550
     10          1           0       -0.937018    2.650819   -0.854780
     11          1           0       -2.025458    2.276590    0.614810
     12          1           0       -0.892030    0.218649   -1.416170
     13          6           0       -2.149461   -0.380130    0.284400
     14          8           0       -2.120052   -1.572900    0.103820
     15          1           0        1.569797   -2.582854   -0.819900
     16          1           0       -2.726461    0.061011    1.137470
 ---------------------------------------------------------------------

 SCF Done:  E(RwB97XD) =  -383.414115704     A.U. after   14 cycles

 The electronic state is 1-A.
 Alpha  occ. eigenvalues --  -19.26112 -19.25857 -10.39439 -10.39223 -10.33308
 Alpha  occ. eigenvalues --  -10.32436 -10.31973 -10.31367  -1.14444  -1.14155
 Alpha  occ. eigenvalues --   -0.89764  -0.88470  -0.74580  -0.73678  -0.66263
 Alpha  occ. eigenvalues --   -0.62904  -0.60057  -0.57018  -0.56476  -0.53982
 Alpha  occ. eigenvalues --   -0.51310  -0.51228  -0.50290  -0.49092  -0.47556
 Alpha  occ. eigenvalues --   -0.46532  -0.37833  -0.36869  -0.34864  -0.34702
 Alpha virt. eigenvalues --   -0.00289   0.00483   0.12557   0.13928   0.15196
 Alpha virt. eigenvalues --    0.15955   0.16382   0.18492   0.20828   0.21315
 Alpha virt. eigenvalues --    0.23342   0.24050   0.30339   0.31082   0.36943

 Mulliken charges:
               1
     1  O   -0.247454
     2  C   -0.044399
     3  C   -0.016859
     4  C   -0.114197
     5  C    0.179084
     6  C   -0.153563
     7  H    0.020643
     8  H    0.076047
     9  H    0.056837
    10  H    0.088512
    11  H    0.073236
    12  H    0.061555
    13  C    0.168973
    14  O   -0.248185
    15  H    0.081292
    16  H    0.018479
 Sum of Mulliken charges =  -0.00000

 Dipole moment (field-independent basis, Debye):
    X=             -0.9457    Y=              1.0590    Z=              0.9569  Tot=              1.7121
 Quadrupole moment (field-independent basis, Debye-Ang):
   XX=            -53.4433   YY=            -48.8266   ZZ=            -43.6059
   XY=            -12.1349   XZ=             -0.7625   YZ=              2.0379

  Exact polarizability:      54.467       3.734     103.640     -16.180      10.408      68.815
 Approx polarizability:      52.490       5.494     105.809     -14.844       8.953      69.880

 ******    1 imaginary frequencies (negative Signs) ******

                      1                      2                      3
                      A                      A                      A
 Frequencies --    -20.7769                25.8299                38.2997
 Red. masses --      4.0373                 3.1298                 5.0806
 Frc consts  --      0.0010                 0.0012                 0.0044
 IR Inten    --      5.7679                 1.1755                 1.9461

                      4                      5                      6
                      A                      A                      A
 Frequencies --     44.2551                71.7617               103.8479
 Red. masses --      5.5399                 2.2694                 3.2112
 Frc consts  --      0.0064                 0.0069                 0.0204
 IR Inten    --      8.5935                 2.1464                 8.7346

                      7                      8                      9
                      A                      A                      A
 Frequencies --    180.7609               203.9774               291.7401
 Red. masses --      3.3510                 1.8246                 3.5538
 Frc consts  --      0.0645                 0.0447                 0.1782
 IR Inten    --      2.0051                 9.6361                 9.0246

                     10                     11                     12
                      A                      A                      A
 Frequencies --    324.1587               570.5402               578.6652
 Red. masses --      2.6932                 1.2442                 4.0035
 Frc consts  --      0.1667                 0.2386                 0.7898
 IR Inten    --     11.3178                10.8235                 9.6618

                     13                     14                     15
                      A                      A                      A
 Frequencies --    610.7874               692.9727               924.8535
 Red. masses --      1.2315                 2.6974                 1.5216
 Frc consts  --      0.2707                 0.7632                 0.7668
 IR Inten    --     15.0843                12.6065                24.3256

                     16                     17                     18
                      A                      A                      A
 Frequencies --    947.1577              1010.0017              1020.7181
 Red. masses --      2.9703                 1.2705                 1.3479
 Frc consts  --      1.5700                 0.7636                 0.8274
 IR Inten    --     65.9680                65.0469                34.8921

                     19                     20                     21
                      A                      A                      A
 Frequencies --   1031.4563              1036.2582              1047.7194
 Red. masses --      1.2214                 1.1628                 1.6846
 Frc consts  --      0.7656                 0.7357                 1.0895
 IR Inten    --      9.0849                13.2238                 0.3397

                     22                     23                     24
                      A                      A                      A
 Frequencies --   1056.0353              1066.7069              1169.7374
 Red. masses --      1.6109                 1.5122                 1.8970
 Frc consts  --      1.0585                 1.0138                 1.5293
 IR Inten    --     12.4869                 4.5041                46.7198

                     25                     26                     27
                      A                      A                      A
 Frequencies --   1288.6590              1304.7399              1390.2071
 Red. masses --      1.5383                 1.2897                 1.1665
 Frc consts  --      1.5051                 1.2936                 1.3283
 IR Inten    --      6.7559                 4.2392                16.5763

                     28                     29                     30
                      A                      A                      A
 Frequencies --   1411.1870              1440.5480              1449.0889
 Red. masses --      1.1645                 1.2782                 1.2195
 Frc consts  --      1.3663                 1.5628                 1.5088
 IR Inten    --     35.4603                23.6162                12.2136

                     31                     32                     33
                      A                      A                      A
 Frequencies --   1714.0932              1720.3820              1851.4323
 Red. masses --      5.2499                 4.8612                 9.1180
 Frc consts  --      9.0880                 8.4770                18.4148
 IR Inten    --     73.7380                 2.0037                61.9441

                     34                     35                     36
                      A                      A                      A
 Frequencies --   1857.1465              2915.7286              2947.5531
 Red. masses --     10.0278                 1.0854                 1.0859
 Frc consts  --     20.3774                 5.4369                 5.5586
 IR Inten    --    411.6424                99.3562               145.0057

                     37                     38                     39
                      A                      A                      A
 Frequencies --   3158.5432              3166.2917              3207.1892
 Red. masses --      1.0629                 1.0603                 1.0971
 Frc consts  --      6.2478                 6.2629                 6.6486
 IR Inten    --      3.6055                 3.5902                 4.1553

                     40                     41                     42
                      A                      A                      A
 Frequencies --   3212.7843              3271.2923              3280.3096
 Red. masses --      1.0969                 1.1171                 1.1188
 Frc consts  --      6.6707                 7.0431                 7.0930
 IR Inten    --      0.8778                 0.8285                 0.0224

 - Thermochemistry -
 -------------------
 Temperature   298.150 Kelvin.  Pressure   1.00000 Atm.
 Atom     1 has atomic number  8 and mass  15.99491

 Molecular mass:   112.05243 amu.
 Principal axes and moments of inertia in atomic units:
                           1         2         3
     Eigenvalues --   741.394061483.675892009.12827
           X            0.99780  -0.06534  -0.01099
           Y            0.06551   0.99772   0.01605
           Z            0.00992  -0.01673   0.99981
 This molecule is an asymmetric top.
 Rotational symmetry number  1.
 Warning -- assumption of classical behavior for rotation
           may cause significant error
 Rotational temperatures (Kelvin)      0.11683     0.05838     0.04311
 Rotational constants (GHZ):           2.43425     1.21640     0.89827
    1 imaginary frequencies ignored.
 Zero-point vibrational energy     326792.4 (Joules/Mol)
                                   78.10525 (Kcal/Mol)
 Warning -- explicit consideration of  12 degrees of freedom as
           vibrations may cause significant error
 Vibrational temperatures:     37.16    55.10    63.67   103.25   149.41
          (Kelvin)            260.07   293.48   419.75   466.39   820.88
                              832.57   878.79   997.03  1330.66  1362.75
                             1453.17  1468.59  1484.04  1490.94  1507.43
                             1519.40  1534.75  1682.99  1854.09  1877.23
                             2000.20  2030.38  2072.63  2084.92  2466.20
                             2475.25  2663.80  2672.02  4195.08  4240.87
                             4544.44  4555.59  4614.43  4622.48  4706.66
                             4719.63

 Zero-point correction=                           0.124469 (Hartree/Particle)
 Thermal correction to Energy=                    0.134390
 Thermal correction to Enthalpy=                  0.135334
 Thermal correction to Gibbs Free Energy=         0.086325
 Sum of electronic and zero-point Energies=           -383.289647
 Sum of electronic and thermal Energies=              -383.279726
 Sum of electronic and thermal Enthalpies=            -383.278782
 Sum of electronic and thermal Free Energies=         -383.327791

                     E (Thermal)             CV                S
                      KCal/Mol        Cal/Mol-Kelvin    Cal/Mol-Kelvin
 Total                   84.331             31.158            103.148
 Electronic               0.000              0.000              0.000
 Translational            0.889              2.981             40.057
 Rotational               0.889              2.981             29.182
 Vibrational             82.553             25.196             33.910
 Vibration     1          0.593              1.985              6.126
 Vibration     2          0.594              1.982              5.345
 Vibration     3          0.595              1.980              5.059
 Vibration     4          0.598              1.967              4.104
 Vibration     5          0.605              1.946              3.381
 Vibration     6          0.630              1.866              2.321
 Vibration     7          0.640              1.834              2.097
 Vibration     8          0.687              1.689              1.464
 Vibration     9          0.709              1.627              1.289
 Vibration    10          0.927              1.095              0.503
 Vibration    11          0.935              1.077              0.488
 Vibration    12          0.970              1.009              0.431

 Normal termination of Gaussian 16 at Sat Dec 30 22:30:18 2023.
