 Gaussian 16, Revision C.01,
 Gaussian 16:  ES64L-G16RevC.01  3-Jul-2019

 ----------------------------------------------------------------------
 # wb97xd def2svp geom=allchk scrf=(iefpcm,solvent=toluene) opt=(readfc
 ,ts,noeigen,maxcycles=50,maxstep=10)
 ----------------------------------------------------------------------

 Structure from the checkpoint file:  "da-1_1_opt_hf_re.chk"
 -----------------
 da-1_1_opt_hf.out
 -----------------
 Charge =  0 Multiplicity = 1

 SCF Done:  E(RwB97XD) =  -383.413844657     A.U. after   14 cycles
 SCF Done:  E(RwB97XD) =  -383.413842733     A.U. after   13 cycles
 SCF Done:  E(RwB97XD) =  -383.413851379     A.U. after   13 cycles
 SCF Done:  E(RwB97XD) =  -383.413860657     A.U. after   13 cycles
 SCF Done:  E(RwB97XD) =  -383.413850808     A.U. after   13 cycles
 SCF Done:  E(RwB97XD) =  -383.413852224     A.U. after   12 cycles
 SCF Done:  E(RwB97XD) =  -383.413856106     A.U. after   12 cycles
 SCF Done:  E(RwB97XD) =  -383.413857409     A.U. after   12 cycles
 SCF Done:  E(RwB97XD) =  -383.413857627     A.U. after   11 cycles
 SCF Done:  E(RwB97XD) =  -383.413857694     A.U. after   10 cycles
 SCF Done:  E(RwB97XD) =  -383.413857693     A.U. after    9 cycles
 Optimization completed.
    -- Stationary point found.

                         Standard orientation:
 ---------------------------------------------------------------------
 Center     Atomic      Atomic             Coordinates (Angstroms)
 Number     Number       Type             X           Y           Z
 ---------------------------------------------------------------------
      1          8           0       -2.394485   -1.097053   -0.313627
      2          6           0        0.769870   -1.554269   -0.017621
      3          6           0       -1.233047    1.506217   -0.614160
      4          6           0        1.618788   -0.626055   -0.469088
      5          6           0       -2.636613   -0.201969    0.462558
      6          6           0       -2.049617    1.157576    0.384961
      7          1           0       -3.343112   -0.367790    1.311063
      8          1           0       -0.989087    0.784340   -1.398459
      9          1           0       -2.316010    1.862006    1.178327
     10          1           0        0.006418   -2.005937   -0.653737
     11          1           0        0.798450   -1.877774    1.028750
     12          1           0        1.609442   -0.281749   -1.507867
     13          6           0        2.611233   -0.001919    0.425824
     14          8           0        3.387872    0.858671    0.089664
     15          1           0       -0.792614    2.503572   -0.679084
     16          1           0        2.595731   -0.387090    1.477859
 ---------------------------------------------------------------------

 The electronic state is 1-A.
 Alpha  occ. eigenvalues --  -19.26384 -19.25618 -10.39588 -10.38979 -10.32912
 Alpha  occ. eigenvalues --  -10.32724 -10.31706 -10.31436  -1.14585  -1.13979
 Alpha  occ. eigenvalues --   -0.89252  -0.88849  -0.74997  -0.73159  -0.65856
 Alpha  occ. eigenvalues --   -0.63312  -0.60448  -0.56538  -0.56149  -0.54347
 Alpha  occ. eigenvalues --   -0.51704  -0.50827  -0.49842  -0.49294  -0.47243
 Alpha  occ. eigenvalues --   -0.46735  -0.37903  -0.36700  -0.35115  -0.34447
 Alpha virt. eigenvalues --   -0.00382   0.00707   0.12842   0.13968   0.15085
 Alpha virt. eigenvalues --    0.15551   0.16182   0.19455   0.21161   0.21633
 Alpha virt. eigenvalues --    0.24159   0.24849   0.30088   0.31376   0.36825

 Mulliken charges:
               1
     1  O   -0.247505
     2  C   -0.042103
     3  C   -0.009279
     4  C   -0.123390
     5  C    0.182326
     6  C   -0.154004
     7  H    0.029340
     8  H    0.075016
     9  H    0.054147
    10  H    0.093025
    11  H    0.068965
    12  H    0.057114
    13  C    0.172057
    14  O   -0.252606
    15  H    0.081875
    16  H    0.015023
 Sum of Mulliken charges =  -0.00000

 Dipole moment (field-independent basis, Debye):
    X=             -2.5839    Y=              0.1904    Z=              1.4836  Tot=              2.9856
 Quadrupole moment (field-independent basis, Debye-Ang):
   XX=            -59.3318   YY=            -47.2735   ZZ=            -43.6325
   XY=            -10.2142   XZ=             -3.1277   YZ=             -1.7538

 Normal termination of Gaussian 16 at Sat Dec 23 14:36:18 2023.
