 Gaussian 16, Revision C.01,
 Gaussian 16:  ES64L-G16RevC.01  3-Jul-2019

 ----------------------------------------------------------------------
 # wb97xd def2svp geom=allchk scrf=(iefpcm,solvent=toluene) opt=(readfc
 ,ts,noeigen,maxcycles=50,maxstep=10)
 ----------------------------------------------------------------------

 Structure from the checkpoint file:  "da-1_1_sqm.chk"
 ---------------------------
 1c_2m_endo_adj_1_reopt2.out
 ---------------------------
 Charge =  0 Multiplicity = 1

 SCF Done:  E(RwB97XD) =  -383.406463713     A.U. after   15 cycles
 SCF Done:  E(RwB97XD) =  -383.409082710     A.U. after   13 cycles
 SCF Done:  E(RwB97XD) =  -383.411850925     A.U. after   13 cycles
 SCF Done:  E(RwB97XD) =  -383.412944439     A.U. after   14 cycles
 SCF Done:  E(RwB97XD) =  -383.413855758     A.U. after   13 cycles
 SCF Done:  E(RwB97XD) =  -383.413973320     A.U. after   13 cycles
 SCF Done:  E(RwB97XD) =  -383.413951047     A.U. after   13 cycles
 SCF Done:  E(RwB97XD) =  -383.413930644     A.U. after   13 cycles
 SCF Done:  E(RwB97XD) =  -383.413959295     A.U. after   13 cycles
 SCF Done:  E(RwB97XD) =  -383.413882866     A.U. after   13 cycles
 SCF Done:  E(RwB97XD) =  -383.414352242     A.U. after   13 cycles
 SCF Done:  E(RwB97XD) =  -383.414356130     A.U. after   12 cycles
 SCF Done:  E(RwB97XD) =  -383.414356246     A.U. after   11 cycles
 SCF Done:  E(RwB97XD) =  -383.414353666     A.U. after   12 cycles
 SCF Done:  E(RwB97XD) =  -383.414356396     A.U. after   12 cycles
 SCF Done:  E(RwB97XD) =  -383.414356277     A.U. after   10 cycles
 SCF Done:  E(RwB97XD) =  -383.414356374     A.U. after   10 cycles
 SCF Done:  E(RwB97XD) =  -383.414356385     A.U. after   10 cycles
 SCF Done:  E(RwB97XD) =  -383.414356408     A.U. after   10 cycles
 SCF Done:  E(RwB97XD) =  -383.414356359     A.U. after    9 cycles
 Optimization completed.
    -- Stationary point found.

                         Standard orientation:
 ---------------------------------------------------------------------
 Center     Atomic      Atomic             Coordinates (Angstroms)
 Number     Number       Type             X           Y           Z
 ---------------------------------------------------------------------
      1          8           0       -2.156345    0.980255    0.523677
      2          6           0        0.975502    1.988771   -0.165025
      3          6           0       -0.917121   -1.603851    0.543968
      4          6           0        1.448837    0.881325    0.412687
      5          6           0       -2.235623    0.233601   -0.423166
      6          6           0       -1.610364   -1.110136   -0.486716
      7          1           0       -2.805255    0.535607   -1.335403
      8          1           0       -0.806548   -1.015196    1.459198
      9          1           0       -1.739112   -1.677821   -1.412989
     10          1           0        0.503276    2.785475    0.413033
     11          1           0        1.036657    2.127824   -1.249924
     12          1           0        1.392448    0.719085    1.493123
     13          6           0        2.054358   -0.196524   -0.391483
     14          8           0        2.463567   -1.238400    0.060834
     15          1           0       -0.441278   -2.585661    0.505320
     16          1           0        2.108498    0.016740   -1.490033
 ---------------------------------------------------------------------

 The electronic state is 1-A.
 Alpha  occ. eigenvalues --  -19.26012 -19.25736 -10.39263 -10.39130 -10.32871
 Alpha  occ. eigenvalues --  -10.32636 -10.31512 -10.31476  -1.14245  -1.14073
 Alpha  occ. eigenvalues --   -0.89345  -0.88604  -0.74710  -0.73303  -0.65933
 Alpha  occ. eigenvalues --   -0.63021  -0.60166  -0.56660  -0.56122  -0.54104
 Alpha  occ. eigenvalues --   -0.51409  -0.50859  -0.50145  -0.48990  -0.47282
 Alpha  occ. eigenvalues --   -0.46593  -0.37337  -0.36959  -0.34801  -0.34564
 Alpha virt. eigenvalues --   -0.00193   0.00713   0.12734   0.14147   0.15053
 Alpha virt. eigenvalues --    0.15985   0.16261   0.18775   0.21074   0.21384
 Alpha virt. eigenvalues --    0.23349   0.25586   0.29946   0.31070   0.37166

 Mulliken charges:
               1
     1  O   -0.245696
     2  C   -0.036356
     3  C   -0.006316
     4  C   -0.115561
     5  C    0.180754
     6  C   -0.161764
     7  H    0.024670
     8  H    0.078074
     9  H    0.052705
    10  H    0.085646
    11  H    0.068542
    12  H    0.059878
    13  C    0.172092
    14  O   -0.255040
    15  H    0.083534
    16  H    0.014837
 Sum of Mulliken charges =  -0.00000

 Dipole moment (field-independent basis, Debye):
    X=             -1.0066    Y=              0.7499    Z=             -2.1358  Tot=              2.4774
 Quadrupole moment (field-independent basis, Debye-Ang):
   XX=            -54.6023   YY=            -46.7577   ZZ=            -43.6199
   XY=              8.9164   XZ=              2.8263   YZ=             -1.4997

 Normal termination of Gaussian 16 at Thu Dec 21 23:06:07 2023.
