 Gaussian 16, Revision C.01,
 Gaussian 16:  ES64L-G16RevC.01  3-Jul-2019

 -----------------------------------------------------------
 # wb97xd def2svp scrf=(iefpcm,solvent=toluene) freq=noraman
 -----------------------------------------------------------

 ------------------
 da-1_1_opt_sqm.out
 ------------------
 Symbolic Z-matrix:
 Charge =  0 Multiplicity = 1

                         Standard orientation:
 ---------------------------------------------------------------------
 Center     Atomic      Atomic             Coordinates (Angstroms)
 Number     Number       Type             X           Y           Z
 ---------------------------------------------------------------------
      1          8           0        2.156341    0.980254   -0.523681
      2          6           0       -0.975501    1.988769    0.165030
      3          6           0        0.917125   -1.603848   -0.543971
      4          6           0       -1.448839    0.881328   -0.412691
      5          6           0        2.235622    0.233605    0.423170
      6          6           0        1.610364   -1.110137    0.486720
      7          1           0        2.805251    0.535616    1.335400
      8          1           0        0.806554   -1.015198   -1.459201
      9          1           0        1.739115   -1.677816    1.412989
     10          1           0       -0.503283    2.785469   -0.413031
     11          1           0       -1.036662    2.127818    1.249920
     12          1           0       -1.392449    0.719078   -1.493121
     13          6           0       -2.054357   -0.196524    0.391480
     14          8           0       -2.463565   -1.238404   -0.060831
     15          1           0        0.441287   -2.585659   -0.505321
     16          1           0       -2.108498    0.016736    1.490030
 ---------------------------------------------------------------------

 SCF Done:  E(RwB97XD) =  -383.414356359     A.U. after   14 cycles

 The electronic state is 1-A.
 Alpha  occ. eigenvalues --  -19.26012 -19.25736 -10.39263 -10.39130 -10.32871
 Alpha  occ. eigenvalues --  -10.32636 -10.31512 -10.31476  -1.14245  -1.14073
 Alpha  occ. eigenvalues --   -0.89345  -0.88604  -0.74710  -0.73303  -0.65934
 Alpha  occ. eigenvalues --   -0.63021  -0.60166  -0.56660  -0.56122  -0.54104
 Alpha  occ. eigenvalues --   -0.51409  -0.50859  -0.50145  -0.48990  -0.47282
 Alpha  occ. eigenvalues --   -0.46593  -0.37337  -0.36959  -0.34801  -0.34563
 Alpha virt. eigenvalues --   -0.00194   0.00713   0.12734   0.14147   0.15053
 Alpha virt. eigenvalues --    0.15985   0.16261   0.18775   0.21074   0.21384
 Alpha virt. eigenvalues --    0.23349   0.25586   0.29946   0.31070   0.37166

 Mulliken charges:
               1
     1  O   -0.245700
     2  C   -0.036348
     3  C   -0.006313
     4  C   -0.115559
     5  C    0.180757
     6  C   -0.161763
     7  H    0.024671
     8  H    0.078073
     9  H    0.052704
    10  H    0.085644
    11  H    0.068540
    12  H    0.059876
    13  C    0.172089
    14  O   -0.255042
    15  H    0.083533
    16  H    0.014837
 Sum of Mulliken charges =  -0.00000

 Dipole moment (field-independent basis, Debye):
    X=              1.0066    Y=              0.7499    Z=              2.1359  Tot=              2.4774
 Quadrupole moment (field-independent basis, Debye-Ang):
   XX=            -54.6022   YY=            -46.7577   ZZ=            -43.6198
   XY=             -8.9164   XZ=              2.8264   YZ=              1.4998

  Exact polarizability:      58.543      22.862      91.274      10.578       6.675      73.921
 Approx polarizability:      57.143      23.263      94.310      11.537       7.605      76.710

 ******    1 imaginary frequencies (negative Signs) ******

                      1                      2                      3
                      A                      A                      A
 Frequencies --    -35.5574                25.7797                50.8463
 Red. masses --      2.6618                 3.7035                 3.0608
 Frc consts  --      0.0020                 0.0015                 0.0047
 IR Inten    --      7.4227                 6.5728                 2.1932

                      4                      5                      6
                      A                      A                      A
 Frequencies --     58.4767                75.3568               101.6911
 Red. masses --      3.3196                 4.8404                 4.2085
 Frc consts  --      0.0067                 0.0162                 0.0256
 IR Inten    --      0.6946                 7.4716                 0.6374

                      7                      8                      9
                      A                      A                      A
 Frequencies --    177.2273               189.9766               292.3774
 Red. masses --      2.9554                 1.9746                 3.5561
 Frc consts  --      0.0547                 0.0420                 0.1791
 IR Inten    --     12.3994                 6.4626                 9.8750

                     10                     11                     12
                      A                      A                      A
 Frequencies --    321.9210               563.4643               580.6811
 Red. masses --      2.6801                 1.2565                 4.5299
 Frc consts  --      0.1636                 0.2350                 0.8999
 IR Inten    --     10.4131                12.0136                 8.8407

                     13                     14                     15
                      A                      A                      A
 Frequencies --    607.9484               692.6231               926.3472
 Red. masses --      1.2033                 2.6811                 1.5153
 Frc consts  --      0.2620                 0.7578                 0.7661
 IR Inten    --     14.3090                13.4128                22.9443

                     16                     17                     18
                      A                      A                      A
 Frequencies --    948.7851              1006.2720              1023.5515
 Red. masses --      2.9543                 1.2873                 1.1227
 Frc consts  --      1.5669                 0.7680                 0.6930
 IR Inten    --     68.8571                65.0752                53.4826

                     19                     20                     21
                      A                      A                      A
 Frequencies --   1025.9347              1032.7113              1048.3234
 Red. masses --      1.3038                 1.2185                 1.6338
 Frc consts  --      0.8086                 0.7656                 1.0579
 IR Inten    --      4.6957                 4.0164                 0.1950

                     22                     23                     24
                      A                      A                      A
 Frequencies --   1055.9982              1065.9977              1170.8122
 Red. masses --      1.8145                 1.5246                 1.8881
 Frc consts  --      1.1921                 1.0208                 1.5250
 IR Inten    --      3.0990                 3.9483                43.4070

                     25                     26                     27
                      A                      A                      A
 Frequencies --   1287.6538              1303.3519              1390.5750
 Red. masses --      1.5399                 1.2956                 1.1666
 Frc consts  --      1.5043                 1.2967                 1.3292
 IR Inten    --      7.3920                 2.6738                15.3055

                     28                     29                     30
                      A                      A                      A
 Frequencies --   1412.4401              1442.8655              1447.2802
 Red. masses --      1.1650                 1.2787                 1.2257
 Frc consts  --      1.3694                 1.5685                 1.5127
 IR Inten    --     32.1435                23.5206                12.7444

                     31                     32                     33
                      A                      A                      A
 Frequencies --   1711.0215              1723.4974              1847.9720
 Red. masses --      5.2387                 4.8974                 9.0895
 Frc consts  --      9.0362                 8.5710                18.2886
 IR Inten    --     75.8410                 3.8832                78.5652

                     34                     35                     36
                      A                      A                      A
 Frequencies --   1856.3586              2914.4830              2948.9897
 Red. masses --      9.9202                 1.0855                 1.0858
 Frc consts  --     20.1415                 5.4326                 5.5637
 IR Inten    --    385.9516                96.0345               151.4133

                     37                     38                     39
                      A                      A                      A
 Frequencies --   3158.9101              3170.5989              3203.0137
 Red. masses --      1.0634                 1.0600                 1.0974
 Frc consts  --      6.2522                 6.2785                 6.6333
 IR Inten    --      4.1452                 2.5199                 5.4845

                     40                     41                     42
                      A                      A                      A
 Frequencies --   3207.9213              3274.7511              3284.2043
 Red. masses --      1.0970                 1.1165                 1.1187
 Frc consts  --      6.6512                 7.0545                 7.1092
 IR Inten    --      1.0957                 0.7650                 0.0874

 - Thermochemistry -
 -------------------
 Temperature   298.150 Kelvin.  Pressure   1.00000 Atm.
 Atom     1 has atomic number  8 and mass  15.99491

 Molecular mass:   112.05243 amu.
 Principal axes and moments of inertia in atomic units:
                           1         2         3
     Eigenvalues --   701.929301461.950741952.60531
           X            0.99927  -0.03740   0.00729
           Y            0.03731   0.99924   0.01114
           Z           -0.00770  -0.01086   0.99991
 This molecule is an asymmetric top.
 Rotational symmetry number  1.
 Warning -- assumption of classical behavior for rotation
           may cause significant error
 Rotational temperatures (Kelvin)      0.12339     0.05925     0.04436
 Rotational constants (GHZ):           2.57112     1.23447     0.92427
    1 imaginary frequencies ignored.
 Zero-point vibrational energy     326753.9 (Joules/Mol)
                                   78.09606 (Kcal/Mol)
 Warning -- explicit consideration of  12 degrees of freedom as
           vibrations may cause significant error
 Vibrational temperatures:     37.09    73.16    84.13   108.42   146.31
          (Kelvin)            254.99   273.33   420.67   463.17   810.70
                              835.47   874.70   996.53  1332.81  1365.09
                             1447.80  1472.66  1476.09  1485.84  1508.30
                             1519.35  1533.73  1684.54  1852.65  1875.23
                             2000.73  2032.19  2075.96  2082.31  2461.78
                             2479.73  2658.82  2670.89  4193.29  4242.94
                             4544.97  4561.78  4608.42  4615.48  4711.64
                             4725.24

 Zero-point correction=                           0.124454 (Hartree/Particle)
 Thermal correction to Energy=                    0.134351
 Thermal correction to Enthalpy=                  0.135295
 Thermal correction to Gibbs Free Energy=         0.086794
 Sum of electronic and zero-point Energies=           -383.289902
 Sum of electronic and thermal Energies=              -383.280005
 Sum of electronic and thermal Enthalpies=            -383.279061
 Sum of electronic and thermal Free Energies=         -383.327563

                     E (Thermal)             CV                S
                      KCal/Mol        Cal/Mol-Kelvin    Cal/Mol-Kelvin
 Total                   84.307             31.199            102.080
 Electronic               0.000              0.000              0.000
 Translational            0.889              2.981             40.057
 Rotational               0.889              2.981             29.084
 Vibrational             82.529             25.238             32.939
 Vibration     1          0.593              1.985              6.130
 Vibration     2          0.595              1.977              4.784
 Vibration     3          0.596              1.974              4.508
 Vibration     4          0.599              1.965              4.008
 Vibration     5          0.604              1.948              3.422
 Vibration     6          0.628              1.870              2.357
 Vibration     7          0.633              1.854              2.228
 Vibration     8          0.688              1.688              1.460
 Vibration     9          0.707              1.632              1.300
 Vibration    10          0.919              1.110              0.517
 Vibration    11          0.937              1.073              0.484
 Vibration    12          0.967              1.015              0.436

 Normal termination of Gaussian 16 at Sat Dec 30 22:30:18 2023.
