 Gaussian 16, Revision C.01,
 Gaussian 16:  ES64L-G16RevC.01  3-Jul-2019

 ----------------------------------------------------------------------
 # wb97xd def2svp geom=allchk scrf=(iefpcm,solvent=toluene) opt=(calcfc
 ,ts,noeigen,maxcycles=50,maxstep=10)
 ----------------------------------------------------------------------

 Structure from the checkpoint file:  "da-1_1_opt_dft_re.chk"
 ---------------------------
 1c_2m_endo_adj_1_reopt2.out
 ---------------------------
 Charge =  0 Multiplicity = 1

 SCF Done:  E(RwB97XD) =  -383.414457498     A.U. after   15 cycles

  Exact polarizability:       0.000       0.000       0.000       0.000       0.000       0.000
 Approx polarizability:      58.178      -4.991     108.293       7.043      -7.330      61.314

 SCF Done:  E(RwB97XD) =  -383.414475702     A.U. after   12 cycles
 SCF Done:  E(RwB97XD) =  -383.414477678     A.U. after   12 cycles
 SCF Done:  E(RwB97XD) =  -383.414477215     A.U. after   11 cycles
 SCF Done:  E(RwB97XD) =  -383.414475313     A.U. after   12 cycles
 SCF Done:  E(RwB97XD) =  -383.414473424     A.U. after   11 cycles
 SCF Done:  E(RwB97XD) =  -383.414471398     A.U. after   11 cycles
 SCF Done:  E(RwB97XD) =  -383.414471963     A.U. after   12 cycles
 SCF Done:  E(RwB97XD) =  -383.414471435     A.U. after   11 cycles
 SCF Done:  E(RwB97XD) =  -383.414471862     A.U. after   11 cycles
 SCF Done:  E(RwB97XD) =  -383.414471812     A.U. after    9 cycles
 SCF Done:  E(RwB97XD) =  -383.414471686     A.U. after   10 cycles
 SCF Done:  E(RwB97XD) =  -383.414471665     A.U. after   10 cycles
 Optimization completed on the basis of negligible forces.
    -- Stationary point found.

                         Standard orientation:
 ---------------------------------------------------------------------
 Center     Atomic      Atomic             Coordinates (Angstroms)
 Number     Number       Type             X           Y           Z
 ---------------------------------------------------------------------
      1          8           0       -1.707301    1.234891    0.563751
      2          6           0        1.480179    1.806457   -0.034934
      3          6           0       -1.940757   -1.619422    0.426272
      4          6           0        1.458563    0.480399    0.130396
      5          6           0       -2.254558    0.689428   -0.366801
      6          6           0       -2.364921   -0.781242   -0.524867
      7          1           0       -2.717194    1.293566   -1.183139
      8          1           0       -1.505587   -1.229889    1.351525
      9          1           0       -2.816199   -1.150154   -1.450470
     10          1           0        0.595544    2.413096    0.171797
     11          1           0        2.383659    2.319833   -0.381962
     12          1           0        0.558426   -0.034697    0.476980
     13          6           0        2.646128   -0.347602   -0.149635
     14          8           0        2.685824   -1.547671   -0.023993
     15          1           0       -2.017506   -2.703057    0.315020
     16          1           0        3.542871    0.225435   -0.500405
 ---------------------------------------------------------------------

 The electronic state is 1-A.
 Alpha  occ. eigenvalues --  -19.26568 -19.25444 -10.39755 -10.38765 -10.33009
 Alpha  occ. eigenvalues --  -10.32408 -10.31866 -10.31011  -1.14771  -1.13774
 Alpha  occ. eigenvalues --   -0.89009  -0.88879  -0.75119  -0.72923  -0.65515
 Alpha  occ. eigenvalues --   -0.63454  -0.60571  -0.56481  -0.55878  -0.54379
 Alpha  occ. eigenvalues --   -0.51869  -0.50772  -0.49474  -0.49147  -0.47178
 Alpha  occ. eigenvalues --   -0.46633  -0.37519  -0.36949  -0.35396  -0.34199
 Alpha virt. eigenvalues --   -0.00603   0.00890   0.13332   0.13614   0.15157
 Alpha virt. eigenvalues --    0.16032   0.17094   0.19318   0.21098   0.22012
 Alpha virt. eigenvalues --    0.23668   0.26633   0.30847   0.31111   0.37323

 Mulliken charges:
               1
     1  O   -0.247789
     2  C   -0.043961
     3  C   -0.017593
     4  C   -0.115608
     5  C    0.186104
     6  C   -0.150998
     7  H    0.031474
     8  H    0.088797
     9  H    0.056330
    10  H    0.084766
    11  H    0.066567
    12  H    0.039681
    13  C    0.178884
    14  O   -0.252480
    15  H    0.083372
    16  H    0.012455
 Sum of Mulliken charges =  -0.00000

 Dipole moment (field-independent basis, Debye):
    X=             -2.1441    Y=              1.1532    Z=             -1.7058  Tot=              2.9727
 Quadrupole moment (field-independent basis, Debye-Ang):
   XX=            -45.1170   YY=            -48.2157   ZZ=            -46.6430
   XY=             11.6983   XZ=              2.8273   YZ=             -2.9253

 Normal termination of Gaussian 16 at Sat Dec 23 14:14:24 2023.
