 Gaussian 16, Revision C.01,
 Gaussian 16:  ES64L-G16RevC.01  3-Jul-2019

 ----------------------------------------------------------------------
 # wb97xd def2svp geom=allchk scrf=(iefpcm,solvent=toluene) opt=(readfc
 ,ts,noeigen,maxcycles=50,maxstep=10)
 ----------------------------------------------------------------------

 Structure from the checkpoint file:  "da-1_1_hf.chk"
 ---------------------------
 1c_2m_endo_adj_1_reopt2.out
 ---------------------------
 Charge =  0 Multiplicity = 1

 SCF Done:  E(RwB97XD) =  -383.413844658     A.U. after   14 cycles
 SCF Done:  E(RwB97XD) =  -383.413840590     A.U. after   12 cycles
 SCF Done:  E(RwB97XD) =  -383.413846451     A.U. after   12 cycles
 SCF Done:  E(RwB97XD) =  -383.413848470     A.U. after   11 cycles
 SCF Done:  E(RwB97XD) =  -383.413849275     A.U. after   10 cycles
 SCF Done:  E(RwB97XD) =  -383.413850556     A.U. after   11 cycles
 SCF Done:  E(RwB97XD) =  -383.413850926     A.U. after   12 cycles
 SCF Done:  E(RwB97XD) =  -383.413851255     A.U. after   12 cycles
 SCF Done:  E(RwB97XD) =  -383.413851659     A.U. after   11 cycles
 SCF Done:  E(RwB97XD) =  -383.413851967     A.U. after   11 cycles
 SCF Done:  E(RwB97XD) =  -383.413856798     A.U. after   10 cycles
 SCF Done:  E(RwB97XD) =  -383.413857116     A.U. after   10 cycles
 SCF Done:  E(RwB97XD) =  -383.413857263     A.U. after   10 cycles
 SCF Done:  E(RwB97XD) =  -383.413857365     A.U. after   10 cycles
 SCF Done:  E(RwB97XD) =  -383.413857440     A.U. after   10 cycles
 SCF Done:  E(RwB97XD) =  -383.413857533     A.U. after   10 cycles
 SCF Done:  E(RwB97XD) =  -383.413857582     A.U. after   10 cycles
 SCF Done:  E(RwB97XD) =  -383.413857613     A.U. after   10 cycles
 SCF Done:  E(RwB97XD) =  -383.413857635     A.U. after   10 cycles
 SCF Done:  E(RwB97XD) =  -383.413857663     A.U. after   10 cycles
 Optimization completed.
    -- Stationary point found.

                         Standard orientation:
 ---------------------------------------------------------------------
 Center     Atomic      Atomic             Coordinates (Angstroms)
 Number     Number       Type             X           Y           Z
 ---------------------------------------------------------------------
      1          8           0       -2.394380    1.097579    0.313397
      2          6           0        0.770584    1.553858    0.018341
      3          6           0       -1.234523   -1.506370    0.614064
      4          6           0        1.619267    0.625160    0.469261
      5          6           0       -2.637036    0.202611   -0.462759
      6          6           0       -2.050930   -1.157310   -0.385045
      7          1           0       -3.343379    0.368842   -1.311309
      8          1           0       -0.990023   -0.784533    1.398232
      9          1           0       -2.317863   -1.861667   -1.178293
     10          1           0        0.006780    2.004820    0.654537
     11          1           0        0.799756    1.878535   -1.027649
     12          1           0        1.609347    0.279730    1.507660
     13          6           0        2.612245    0.002040   -0.425767
     14          8           0        3.388789   -0.858820   -0.090081
     15          1           0       -0.794810   -2.504032    0.679130
     16          1           0        2.597271    0.388299   -1.477410
 ---------------------------------------------------------------------

 The electronic state is 1-A.
 Alpha  occ. eigenvalues --  -19.26384 -19.25618 -10.39588 -10.38979 -10.32912
 Alpha  occ. eigenvalues --  -10.32724 -10.31706 -10.31437  -1.14585  -1.13979
 Alpha  occ. eigenvalues --   -0.89252  -0.88850  -0.74998  -0.73159  -0.65856
 Alpha  occ. eigenvalues --   -0.63312  -0.60448  -0.56538  -0.56149  -0.54347
 Alpha  occ. eigenvalues --   -0.51704  -0.50827  -0.49841  -0.49294  -0.47243
 Alpha  occ. eigenvalues --   -0.46735  -0.37902  -0.36701  -0.35116  -0.34447
 Alpha virt. eigenvalues --   -0.00382   0.00707   0.12843   0.13968   0.15084
 Alpha virt. eigenvalues --    0.15550   0.16183   0.19457   0.21161   0.21634
 Alpha virt. eigenvalues --    0.24161   0.24849   0.30087   0.31376   0.36826

 Mulliken charges:
               1
     1  O   -0.247504
     2  C   -0.042122
     3  C   -0.009296
     4  C   -0.123386
     5  C    0.182333
     6  C   -0.153988
     7  H    0.029342
     8  H    0.075013
     9  H    0.054150
    10  H    0.093027
    11  H    0.068970
    12  H    0.057104
    13  C    0.172064
    14  O   -0.252606
    15  H    0.081872
    16  H    0.015025
 Sum of Mulliken charges =  -0.00000

 Dipole moment (field-independent basis, Debye):
    X=             -2.5857    Y=             -0.1903    Z=             -1.4824  Tot=              2.9866
 Quadrupole moment (field-independent basis, Debye-Ang):
   XX=            -59.3290   YY=            -47.2739   ZZ=            -43.6340
   XY=             10.2204   XZ=              3.1287   YZ=             -1.7577

 Normal termination of Gaussian 16 at Fri Dec 22 18:03:38 2023.
