 Gaussian 16, Revision C.01,
 Gaussian 16:  ES64L-G16RevC.01  3-Jul-2019

 -----------------------------------------------------------
 # wb97xd def2svp scrf=(iefpcm,solvent=toluene) freq=noraman
 -----------------------------------------------------------

 --------------------
 da-1_1_opt_hf_re.out
 --------------------
 Symbolic Z-matrix:
 Charge =  0 Multiplicity = 1

                         Standard orientation:
 ---------------------------------------------------------------------
 Center     Atomic      Atomic             Coordinates (Angstroms)
 Number     Number       Type             X           Y           Z
 ---------------------------------------------------------------------
      1          8           0       -2.394478   -1.097054   -0.313629
      2          6           0        0.769872   -1.554269   -0.017618
      3          6           0       -1.233052    1.506218   -0.614159
      4          6           0        1.618791   -0.626058   -0.469089
      5          6           0       -2.636610   -0.201974    0.462562
      6          6           0       -2.049622    1.157577    0.384962
      7          1           0       -3.343109   -0.367795    1.311062
      8          1           0       -0.989091    0.784338   -1.398459
      9          1           0       -2.316013    1.862006    1.178332
     10          1           0        0.006423   -2.005940   -0.653739
     11          1           0        0.798453   -1.877769    1.028752
     12          1           0        1.609440   -0.281748   -1.507869
     13          6           0        2.611230   -0.001916    0.425822
     14          8           0        3.387869    0.858675    0.089662
     15          1           0       -0.792614    2.503568   -0.679079
     16          1           0        2.595731   -0.387086    1.477862
 ---------------------------------------------------------------------

 SCF Done:  E(RwB97XD) =  -383.413857693     A.U. after   14 cycles

 The electronic state is 1-A.
 Alpha  occ. eigenvalues --  -19.26384 -19.25618 -10.39588 -10.38979 -10.32912
 Alpha  occ. eigenvalues --  -10.32724 -10.31706 -10.31437  -1.14585  -1.13979
 Alpha  occ. eigenvalues --   -0.89252  -0.88849  -0.74997  -0.73159  -0.65856
 Alpha  occ. eigenvalues --   -0.63312  -0.60448  -0.56538  -0.56149  -0.54347
 Alpha  occ. eigenvalues --   -0.51704  -0.50827  -0.49842  -0.49294  -0.47243
 Alpha  occ. eigenvalues --   -0.46735  -0.37903  -0.36700  -0.35116  -0.34447
 Alpha virt. eigenvalues --   -0.00382   0.00707   0.12843   0.13968   0.15085
 Alpha virt. eigenvalues --    0.15551   0.16182   0.19455   0.21161   0.21633
 Alpha virt. eigenvalues --    0.24159   0.24849   0.30088   0.31376   0.36825

 Mulliken charges:
               1
     1  O   -0.247504
     2  C   -0.042102
     3  C   -0.009279
     4  C   -0.123390
     5  C    0.182328
     6  C   -0.154006
     7  H    0.029340
     8  H    0.075017
     9  H    0.054147
    10  H    0.093025
    11  H    0.068964
    12  H    0.057115
    13  C    0.172054
    14  O   -0.252607
    15  H    0.081874
    16  H    0.015024
 Sum of Mulliken charges =  -0.00000

 Dipole moment (field-independent basis, Debye):
    X=             -2.5840    Y=              0.1903    Z=              1.4836  Tot=              2.9857
 Quadrupole moment (field-independent basis, Debye-Ang):
   XX=            -59.3317   YY=            -47.2735   ZZ=            -43.6325
   XY=            -10.2141   XZ=             -3.1278   YZ=             -1.7538

  Exact polarizability:      77.485      26.030      78.796     -13.744      -5.648      69.830
 Approx polarizability:      74.201      26.565      82.794     -14.912      -4.658      70.722

 ******    1 imaginary frequencies (negative Signs) ******

                      1                      2                      3
                      A                      A                      A
 Frequencies --    -31.8225                22.1453                42.8998
 Red. masses --      3.8668                 3.8874                 2.4373
 Frc consts  --      0.0023                 0.0011                 0.0026
 IR Inten    --      0.8480                 5.0798                 8.2612

                      4                      5                      6
                      A                      A                      A
 Frequencies --     56.7782                70.5560               111.2537
 Red. masses --      3.5802                 3.3099                 4.9044
 Frc consts  --      0.0068                 0.0097                 0.0358
 IR Inten    --      2.0019                 2.6144                 9.3875

                      7                      8                      9
                      A                      A                      A
 Frequencies --    181.9807               205.6699               294.4684
 Red. masses --      3.2729                 1.8607                 3.5624
 Frc consts  --      0.0639                 0.0464                 0.1820
 IR Inten    --      1.6836                12.8341                 9.9807

                     10                     11                     12
                      A                      A                      A
 Frequencies --    325.6097               567.6613               580.9720
 Red. masses --      2.6823                 1.2472                 4.4017
 Frc consts  --      0.1676                 0.2368                 0.8753
 IR Inten    --     10.1910                12.1167                 9.6817

                     13                     14                     15
                      A                      A                      A
 Frequencies --    605.1884               693.8882               926.7813
 Red. masses --      1.2077                 2.6811                 1.5188
 Frc consts  --      0.2606                 0.7606                 0.7686
 IR Inten    --     23.7581                15.2688                28.0054

                     16                     17                     18
                      A                      A                      A
 Frequencies --    949.7477              1008.4393              1026.3398
 Red. masses --      2.9325                 1.3040                 1.2961
 Frc consts  --      1.5585                 0.7813                 0.8044
 IR Inten    --     71.9525                69.5354                 4.2240

                     19                     20                     21
                      A                      A                      A
 Frequencies --   1027.7620              1032.7772              1049.2758
 Red. masses --      1.1371                 1.1925                 1.6316
 Frc consts  --      0.7077                 0.7494                 1.0584
 IR Inten    --     37.5190                19.3676                 0.4761

                     22                     23                     24
                      A                      A                      A
 Frequencies --   1055.3256              1068.3921              1171.1336
 Red. masses --      1.7754                 1.5333                 1.9008
 Frc consts  --      1.1650                 1.0312                 1.5361
 IR Inten    --      2.7225                 3.4525                48.5923

                     25                     26                     27
                      A                      A                      A
 Frequencies --   1288.3904              1303.9046              1392.5114
 Red. masses --      1.5355                 1.2940                 1.1689
 Frc consts  --      1.5017                 1.2962                 1.3354
 IR Inten    --      6.0598                 2.8128                14.4882

                     28                     29                     30
                      A                      A                      A
 Frequencies --   1413.1832              1441.8065              1451.3301
 Red. masses --      1.1632                 1.2823                 1.2225
 Frc consts  --      1.3687                 1.5706                 1.5172
 IR Inten    --     30.2467                26.1048                12.8523

                     31                     32                     33
                      A                      A                      A
 Frequencies --   1711.1028              1721.0036              1845.8419
 Red. masses --      5.2329                 4.8257                 8.9198
 Frc consts  --      9.0270                 8.4212                17.9058
 IR Inten    --     82.1684                 4.6288               128.8913

                     34                     35                     36
                      A                      A                      A
 Frequencies --   1857.5314              2915.5896              2956.1744
 Red. masses --     10.0834                 1.0854                 1.0863
 Frc consts  --     20.4988                 5.4361                 5.5929
 IR Inten    --    371.6063               102.8527               153.0992

                     37                     38                     39
                      A                      A                      A
 Frequencies --   3160.6169              3171.1145              3203.9214
 Red. masses --      1.0638                 1.0597                 1.0968
 Frc consts  --      6.2614                 6.2788                 6.6335
 IR Inten    --      3.7411                 3.8607                 1.8707

                     40                     41                     42
                      A                      A                      A
 Frequencies --   3205.0777              3279.4583              3283.2883
 Red. masses --      1.0975                 1.1159                 1.1189
 Frc consts  --      6.6424                 7.0712                 7.1063
 IR Inten    --      5.0423                 1.5704                 0.1932

 - Thermochemistry -
 -------------------
 Temperature   298.150 Kelvin.  Pressure   1.00000 Atm.
 Atom     1 has atomic number  8 and mass  15.99491

 Molecular mass:   112.05243 amu.
 Principal axes and moments of inertia in atomic units:
                           1         2         3
     Eigenvalues --   548.864522153.758742510.50918
           X            0.99980  -0.01952  -0.00509
           Y            0.01943   0.99965  -0.01789
           Z            0.00544   0.01779   0.99983
 This molecule is an asymmetric top.
 Rotational symmetry number  1.
 Warning -- assumption of classical behavior for rotation
           may cause significant error
 Rotational temperatures (Kelvin)      0.15781     0.04022     0.03450
 Rotational constants (GHZ):           3.28814     0.83795     0.71887
    1 imaginary frequencies ignored.
 Zero-point vibrational energy     327040.4 (Joules/Mol)
                                   78.16454 (Kcal/Mol)
 Warning -- explicit consideration of  12 degrees of freedom as
           vibrations may cause significant error
 Vibrational temperatures:     31.86    61.72    81.69   101.51   160.07
          (Kelvin)            261.83   295.91   423.67   468.48   816.74
                              835.89   870.73   998.35  1333.43  1366.48
                             1450.92  1476.67  1478.72  1485.94  1509.67
                             1518.38  1537.18  1685.00  1853.71  1876.03
                             2003.51  2033.26  2074.44  2088.14  2461.90
                             2476.14  2655.75  2672.57  4194.88  4253.28
                             4547.42  4562.53  4609.73  4611.39  4718.41
                             4723.92

 Zero-point correction=                           0.124563 (Hartree/Particle)
 Thermal correction to Energy=                    0.134437
 Thermal correction to Enthalpy=                  0.135381
 Thermal correction to Gibbs Free Energy=         0.086497
 Sum of electronic and zero-point Energies=           -383.289295
 Sum of electronic and thermal Energies=              -383.279421
 Sum of electronic and thermal Enthalpies=            -383.278476
 Sum of electronic and thermal Free Energies=         -383.327361

                     E (Thermal)             CV                S
                      KCal/Mol        Cal/Mol-Kelvin    Cal/Mol-Kelvin
 Total                   84.361             31.139            102.885
 Electronic               0.000              0.000              0.000
 Translational            0.889              2.981             40.057
 Rotational               0.889              2.981             29.474
 Vibrational             82.583             25.178             33.354
 Vibration     1          0.593              1.985              6.432
 Vibration     2          0.595              1.980              5.120
 Vibration     3          0.596              1.975              4.566
 Vibration     4          0.598              1.968              4.138
 Vibration     5          0.607              1.940              3.247
 Vibration     6          0.630              1.864              2.308
 Vibration     7          0.640              1.832              2.082
 Vibration     8          0.689              1.684              1.448
 Vibration     9          0.710              1.624              1.282
 Vibration    10          0.924              1.101              0.509
 Vibration    11          0.938              1.072              0.484
 Vibration    12          0.964              1.021              0.441

 Optimization completed.
    -- Stationary point found.
 Normal termination of Gaussian 16 at Sat Dec 30 22:30:16 2023.
