 Gaussian 16, Revision C.01,
 Gaussian 16:  ES64L-G16RevC.01  3-Jul-2019

 -----------------------------------------------------------
 # wb97xd def2svp scrf=(iefpcm,solvent=toluene) freq=noraman
 -----------------------------------------------------------

 ----------------------
 da-1_1_opt_dft_re2.out
 ----------------------
 Symbolic Z-matrix:
 Charge =  0 Multiplicity = 1

                         Standard orientation:
 ---------------------------------------------------------------------
 Center     Atomic      Atomic             Coordinates (Angstroms)
 Number     Number       Type             X           Y           Z
 ---------------------------------------------------------------------
      1          8           0        1.707299    1.234890   -0.563749
      2          6           0       -1.480182    1.806458    0.034931
      3          6           0        1.940760   -1.619420   -0.426269
      4          6           0       -1.458561    0.480398   -0.130399
      5          6           0        2.254559    0.689430    0.366801
      6          6           0        2.364919   -0.781240    0.524871
      7          1           0        2.717189    1.293570    1.183141
      8          1           0        1.505590   -1.229891   -1.351529
      9          1           0        2.816200   -1.150150    1.450471
     10          1           0       -0.595542    2.413099   -0.171799
     11          1           0       -2.383662    2.319828    0.381961
     12          1           0       -0.558431   -0.034701   -0.476979
     13          6           0       -2.646131   -0.347602    0.149631
     14          8           0       -2.685820   -1.547672    0.023991
     15          1           0        2.017510   -2.703060   -0.315019
     16          1           0       -3.542871    0.225427    0.500401
 ---------------------------------------------------------------------

 SCF Done:  E(RwB97XD) =  -383.414471667     A.U. after   15 cycles

 The electronic state is 1-A.
 Alpha  occ. eigenvalues --  -19.26568 -19.25444 -10.39754 -10.38765 -10.33009
 Alpha  occ. eigenvalues --  -10.32408 -10.31866 -10.31011  -1.14771  -1.13774
 Alpha  occ. eigenvalues --   -0.89009  -0.88879  -0.75119  -0.72923  -0.65515
 Alpha  occ. eigenvalues --   -0.63454  -0.60571  -0.56481  -0.55878  -0.54379
 Alpha  occ. eigenvalues --   -0.51869  -0.50772  -0.49474  -0.49147  -0.47178
 Alpha  occ. eigenvalues --   -0.46633  -0.37519  -0.36949  -0.35396  -0.34199
 Alpha virt. eigenvalues --   -0.00603   0.00890   0.13332   0.13614   0.15157
 Alpha virt. eigenvalues --    0.16033   0.17094   0.19318   0.21099   0.22012
 Alpha virt. eigenvalues --    0.23668   0.26633   0.30847   0.31111   0.37323

 Mulliken charges:
               1
     1  O   -0.247788
     2  C   -0.043962
     3  C   -0.017598
     4  C   -0.115606
     5  C    0.186103
     6  C   -0.150995
     7  H    0.031474
     8  H    0.088798
     9  H    0.056329
    10  H    0.084767
    11  H    0.066566
    12  H    0.039679
    13  C    0.178886
    14  O   -0.252481
    15  H    0.083373
    16  H    0.012455
 Sum of Mulliken charges =  -0.00000

 Dipole moment (field-independent basis, Debye):
    X=              2.1441    Y=              1.1532    Z=              1.7058  Tot=              2.9727
 Quadrupole moment (field-independent basis, Debye-Ang):
   XX=            -45.1168   YY=            -48.2157   ZZ=            -46.6430
   XY=            -11.6983   XZ=              2.8272   YZ=              2.9253

  Exact polarizability:      64.408       4.780     106.998       6.165       9.026      56.785
 Approx polarizability:      58.257       4.200     108.479       7.198       7.296      60.899

 ******    1 imaginary frequencies (negative Signs) ******

                      1                      2                      3
                      A                      A                      A
 Frequencies --    -22.2087                28.2620                38.0428
 Red. masses --      4.0238                 4.2951                 3.6833
 Frc consts  --      0.0012                 0.0020                 0.0031
 IR Inten    --      4.9569                 5.5432                 4.6650

                      4                      5                      6
                      A                      A                      A
 Frequencies --     58.8937                89.1495               104.0215
 Red. masses --      3.6920                 2.3199                 4.2266
 Frc consts  --      0.0075                 0.0109                 0.0269
 IR Inten    --      0.3236                 4.8850                 6.7179

                      7                      8                      9
                      A                      A                      A
 Frequencies --    176.2114               185.4785               293.4756
 Red. masses --      3.2411                 1.8920                 3.5037
 Frc consts  --      0.0593                 0.0383                 0.1778
 IR Inten    --      4.4886                15.3273                 8.6952

                     10                     11                     12
                      A                      A                      A
 Frequencies --    325.8821               566.0938               580.7458
 Red. masses --      2.6776                 1.2514                 4.7359
 Frc consts  --      0.1675                 0.2363                 0.9411
 IR Inten    --     11.0857                12.5750                 9.9987

                     13                     14                     15
                      A                      A                      A
 Frequencies --    625.8852               693.7150               928.5569
 Red. masses --      1.1756                 2.6656                 1.5145
 Frc consts  --      0.2713                 0.7558                 0.7693
 IR Inten    --     10.0837                12.6816                29.6200

                     16                     17                     18
                      A                      A                      A
 Frequencies --    950.1253              1015.0792              1026.5853
 Red. masses --      2.9411                 1.2421                 1.2781
 Frc consts  --      1.5643                 0.7541                 0.7936
 IR Inten    --     71.1704                56.6988                 1.2640

                     19                     20                     21
                      A                      A                      A
 Frequencies --   1031.0558              1046.0399              1051.5898
 Red. masses --      1.1295                 1.6226                 1.2701
 Frc consts  --      0.7075                 1.0461                 0.8275
 IR Inten    --     55.6273                 0.3177                 1.5053

                     22                     23                     24
                      A                      A                      A
 Frequencies --   1054.5429              1069.1989              1165.9205
 Red. masses --      1.7512                 1.5625                 1.8046
 Frc consts  --      1.1474                 1.0524                 1.4453
 IR Inten    --      2.2148                 4.2521                39.5196

                     25                     26                     27
                      A                      A                      A
 Frequencies --   1283.6970              1303.2682              1387.8039
 Red. masses --      1.5949                 1.2889                 1.1632
 Frc consts  --      1.5485                 1.2898                 1.3200
 IR Inten    --     10.5096                 3.5419                24.1960

                     28                     29                     30
                      A                      A                      A
 Frequencies --   1413.8739              1441.0959              1443.8694
 Red. masses --      1.1613                 1.2863                 1.2294
 Frc consts  --      1.3677                 1.5740                 1.5101
 IR Inten    --     33.1121                25.9374                15.5818

                     31                     32                     33
                      A                      A                      A
 Frequencies --   1711.1313              1720.3674              1843.5269
 Red. masses --      5.2164                 5.0179                 8.9774
 Frc consts  --      8.9989                 8.7501                17.9763
 IR Inten    --     81.7475                 7.9809               118.0066

                     34                     35                     36
                      A                      A                      A
 Frequencies --   1857.1945              2913.1419              2961.6709
 Red. masses --      9.9765                 1.0854                 1.0865
 Frc consts  --     20.2741                 5.4269                 5.6151
 IR Inten    --    383.5875               118.8148               135.8028

                     37                     38                     39
                      A                      A                      A
 Frequencies --   3154.7845              3168.5408              3206.7760
 Red. masses --      1.0632                 1.0605                 1.0972
 Frc consts  --      6.2348                 6.2729                 6.6480
 IR Inten    --      6.9752                 2.8773                 5.0512

                     40                     41                     42
                      A                      A                      A
 Frequencies --   3222.3980              3272.5660              3280.8029
 Red. masses --      1.0950                 1.1171                 1.1187
 Frc consts  --      6.6990                 7.0488                 7.0943
 IR Inten    --      1.0366                 0.6445                 0.2874

 - Thermochemistry -
 -------------------
 Temperature   298.150 Kelvin.  Pressure   1.00000 Atm.
 Atom     1 has atomic number  8 and mass  15.99491

 Molecular mass:   112.05243 amu.
 Principal axes and moments of inertia in atomic units:
                           1         2         3
     Eigenvalues --   685.568941897.549972449.32026
           X            0.99906  -0.04320   0.00413
           Y            0.04312   0.99889   0.01870
           Z           -0.00493  -0.01851   0.99982
 This molecule is an asymmetric top.
 Rotational symmetry number  1.
 Warning -- assumption of classical behavior for rotation
           may cause significant error
 Rotational temperatures (Kelvin)      0.12634     0.04565     0.03536
 Rotational constants (GHZ):           2.63247     0.95109     0.73683
    1 imaginary frequencies ignored.
 Zero-point vibrational energy     327125.2 (Joules/Mol)
                                   78.18480 (Kcal/Mol)
 Warning -- explicit consideration of  11 degrees of freedom as
           vibrations may cause significant error
 Vibrational temperatures:     40.66    54.74    84.73   128.27   149.66
          (Kelvin)            253.53   266.86   422.25   468.87   814.48
                              835.56   900.51   998.10  1335.99  1367.02
                             1460.47  1477.03  1483.46  1505.02  1513.00
                             1517.25  1538.34  1677.50  1846.95  1875.11
                             1996.74  2034.25  2073.42  2077.41  2461.94
                             2475.23  2652.42  2672.09  4191.36  4261.18
                             4539.03  4558.82  4613.84  4636.31  4708.49
                             4720.34

 Zero-point correction=                           0.124595 (Hartree/Particle)
 Thermal correction to Energy=                    0.134469
 Thermal correction to Enthalpy=                  0.135413
 Thermal correction to Gibbs Free Energy=         0.086699
 Sum of electronic and zero-point Energies=           -383.289876
 Sum of electronic and thermal Energies=              -383.280003
 Sum of electronic and thermal Enthalpies=            -383.279059
 Sum of electronic and thermal Free Energies=         -383.327773

                     E (Thermal)             CV                S
                      KCal/Mol        Cal/Mol-Kelvin    Cal/Mol-Kelvin
 Total                   84.380             31.112            102.527
 Electronic               0.000              0.000              0.000
 Translational            0.889              2.981             40.057
 Rotational               0.889              2.981             29.545
 Vibrational             82.603             25.151             32.925
 Vibration     1          0.593              1.984              5.948
 Vibration     2          0.594              1.982              5.358
 Vibration     3          0.596              1.974              4.494
 Vibration     4          0.602              1.957              3.679
 Vibration     5          0.605              1.946              3.378
 Vibration     6          0.628              1.872              2.368
 Vibration     7          0.632              1.860              2.273
 Vibration     8          0.688              1.686              1.454
 Vibration     9          0.710              1.624              1.280
 Vibration    10          0.922              1.105              0.512
 Vibration    11          0.937              1.073              0.484

 Normal termination of Gaussian 16 at Sat Dec 30 22:30:15 2023.
