 Gaussian 16, Revision C.01,
 Gaussian 16:  ES64L-G16RevC.01  3-Jul-2019

 -----------------------------------------------------------
 # wb97xd def2svp scrf=(iefpcm,solvent=toluene) freq=noraman
 -----------------------------------------------------------

 -----------------------
 da-1_1_opt_hf_reopt.out
 -----------------------
 Symbolic Z-matrix:
 Charge =  0 Multiplicity = 1

                         Standard orientation:
 ---------------------------------------------------------------------
 Center     Atomic      Atomic             Coordinates (Angstroms)
 Number     Number       Type             X           Y           Z
 ---------------------------------------------------------------------
      1          8           0       -2.394381   -1.097579   -0.313401
      2          6           0        0.770579   -1.553860   -0.018341
      3          6           0       -1.234520    1.506370   -0.614061
      4          6           0        1.619269   -0.625160   -0.469261
      5          6           0       -2.637041   -0.202609    0.462759
      6          6           0       -2.050930    1.157311    0.385049
      7          1           0       -3.343381   -0.368839    1.311309
      8          1           0       -0.990020    0.784530   -1.398231
      9          1           0       -2.317860    1.861671    1.178289
     10          1           0        0.006779   -2.004820   -0.654541
     11          1           0        0.799759   -1.878540    1.027649
     12          1           0        1.609349   -0.279730   -1.507661
     13          6           0        2.612249   -0.002040    0.425769
     14          8           0        3.388790    0.858820    0.090079
     15          1           0       -0.794810    2.504030   -0.679131
     16          1           0        2.597269   -0.388300    1.477409
 ---------------------------------------------------------------------

 SCF Done:  E(RwB97XD) =  -383.413857663     A.U. after   14 cycles

 The electronic state is 1-A.
 Alpha  occ. eigenvalues --  -19.26384 -19.25618 -10.39588 -10.38979 -10.32912
 Alpha  occ. eigenvalues --  -10.32724 -10.31706 -10.31437  -1.14585  -1.13979
 Alpha  occ. eigenvalues --   -0.89252  -0.88850  -0.74998  -0.73159  -0.65856
 Alpha  occ. eigenvalues --   -0.63312  -0.60448  -0.56538  -0.56149  -0.54347
 Alpha  occ. eigenvalues --   -0.51704  -0.50827  -0.49841  -0.49295  -0.47243
 Alpha  occ. eigenvalues --   -0.46735  -0.37902  -0.36701  -0.35116  -0.34447
 Alpha virt. eigenvalues --   -0.00382   0.00707   0.12843   0.13968   0.15084
 Alpha virt. eigenvalues --    0.15550   0.16183   0.19457   0.21161   0.21634
 Alpha virt. eigenvalues --    0.24161   0.24849   0.30087   0.31376   0.36826

 Mulliken charges:
               1
     1  O   -0.247508
     2  C   -0.042121
     3  C   -0.009296
     4  C   -0.123391
     5  C    0.182336
     6  C   -0.153988
     7  H    0.029343
     8  H    0.075015
     9  H    0.054148
    10  H    0.093027
    11  H    0.068971
    12  H    0.057105
    13  C    0.172067
    14  O   -0.252604
    15  H    0.081872
    16  H    0.015025
 Sum of Mulliken charges =  -0.00000

 Dipole moment (field-independent basis, Debye):
    X=             -2.5857    Y=              0.1903    Z=              1.4824  Tot=              2.9866
 Quadrupole moment (field-independent basis, Debye-Ang):
   XX=            -59.3289   YY=            -47.2739   ZZ=            -43.6340
   XY=            -10.2204   XZ=             -3.1287   YZ=             -1.7577

  Exact polarizability:      77.479      26.024      78.817     -13.729      -5.664      69.819
 Approx polarizability:      74.191      26.558      82.813     -14.897      -4.667      70.709

 ******    1 imaginary frequencies (negative Signs) ******

                      1                      2                      3
                      A                      A                      A
 Frequencies --    -32.0826                22.2635                42.8359
 Red. masses --      3.8455                 3.8857                 2.4456
 Frc consts  --      0.0023                 0.0011                 0.0026
 IR Inten    --      0.8443                 5.0795                 8.2448

                      4                      5                      6
                      A                      A                      A
 Frequencies --     56.6547                70.4465               110.8735
 Red. masses --      3.5799                 3.3048                 4.9075
 Frc consts  --      0.0068                 0.0097                 0.0355
 IR Inten    --      1.9973                 2.6175                 9.3594

                      7                      8                      9
                      A                      A                      A
 Frequencies --    181.8423               205.4068               294.4737
 Red. masses --      3.2753                 1.8600                 3.5627
 Frc consts  --      0.0638                 0.0462                 0.1820
 IR Inten    --      1.6844                12.8960                 9.9804

                     10                     11                     12
                      A                      A                      A
 Frequencies --    325.5985               567.5609               580.9733
 Red. masses --      2.6823                 1.2474                 4.3978
 Frc consts  --      0.1675                 0.2367                 0.8746
 IR Inten    --     10.1922                12.0972                 9.6768

                     13                     14                     15
                      A                      A                      A
 Frequencies --    604.9650               693.8905               926.7682
 Red. masses --      1.2081                 2.6812                 1.5188
 Frc consts  --      0.2605                 0.7606                 0.7686
 IR Inten    --     23.8005                15.2677                28.0039

                     16                     17                     18
                      A                      A                      A
 Frequencies --    949.7542              1008.3282              1026.3225
 Red. masses --      2.9325                 1.3049                 1.3008
 Frc consts  --      1.5585                 0.7817                 0.8073
 IR Inten    --     71.9553                69.3973                 5.0754

                     19                     20                     21
                      A                      A                      A
 Frequencies --   1027.5945              1032.6468              1049.2671
 Red. masses --      1.1324                 1.1932                 1.6319
 Frc consts  --      0.7045                 0.7497                 1.0586
 IR Inten    --     37.4651                18.7359                 0.4817

                     22                     23                     24
                      A                      A                      A
 Frequencies --   1055.3311              1068.3778              1171.1322
 Red. masses --      1.7756                 1.5331                 1.9010
 Frc consts  --      1.1652                 1.0310                 1.5362
 IR Inten    --      2.7339                 3.4582                48.5977

                     25                     26                     27
                      A                      A                      A
 Frequencies --   1288.3941              1303.8949              1392.5005
 Red. masses --      1.5354                 1.2940                 1.1689
 Frc consts  --      1.5016                 1.2962                 1.3354
 IR Inten    --      6.0593                 2.8130                14.4899

                     28                     29                     30
                      A                      A                      A
 Frequencies --   1413.1792              1441.8003              1451.3194
 Red. masses --      1.1632                 1.2823                 1.2225
 Frc consts  --      1.3687                 1.5706                 1.5171
 IR Inten    --     30.2638                26.1051                12.8602

                     31                     32                     33
                      A                      A                      A
 Frequencies --   1711.0858              1720.9734              1845.8135
 Red. masses --      5.2329                 4.8253                 8.9193
 Frc consts  --      9.0268                 8.4203                17.9043
 IR Inten    --     82.1886                 4.6222               128.9957

                     34                     35                     36
                      A                      A                      A
 Frequencies --   1857.5403              2915.6808              2956.2101
 Red. masses --     10.0837                 1.0854                 1.0863
 Frc consts  --     20.4996                 5.4364                 5.5931
 IR Inten    --    371.5390               102.8746               153.0958

                     37                     38                     39
                      A                      A                      A
 Frequencies --   3160.6040              3171.0970              3203.9219
 Red. masses --      1.0638                 1.0597                 1.0968
 Frc consts  --      6.2613                 6.2787                 6.6335
 IR Inten    --      3.7405                 3.8581                 1.8716

                     40                     41                     42
                      A                      A                      A
 Frequencies --   3205.1342              3279.4731              3283.2801
 Red. masses --      1.0975                 1.1159                 1.1189
 Frc consts  --      6.6426                 7.0713                 7.1063
 IR Inten    --      5.0449                 1.5750                 0.1927

 - Thermochemistry -
 -------------------
 Temperature   298.150 Kelvin.  Pressure   1.00000 Atm.
 Atom     1 has atomic number  8 and mass  15.99491

 Molecular mass:   112.05243 amu.
 Principal axes and moments of inertia in atomic units:
                           1         2         3
     Eigenvalues --   548.843122155.000392511.73773
           X            0.99980  -0.01953  -0.00508
           Y            0.01944   0.99965  -0.01794
           Z            0.00543   0.01784   0.99983
 This molecule is an asymmetric top.
 Rotational symmetry number  1.
 Warning -- assumption of classical behavior for rotation
           may cause significant error
 Rotational temperatures (Kelvin)      0.15781     0.04019     0.03448
 Rotational constants (GHZ):           3.28826     0.83747     0.71852
    1 imaginary frequencies ignored.
 Zero-point vibrational energy     327030.4 (Joules/Mol)
                                   78.16214 (Kcal/Mol)
 Warning -- explicit consideration of  12 degrees of freedom as
           vibrations may cause significant error
 Vibrational temperatures:     32.03    61.63    81.51   101.36   159.52
          (Kelvin)            261.63   295.53   423.68   468.46   816.59
                              835.89   870.41   998.35  1333.41  1366.48
                             1450.76  1476.65  1478.48  1485.75  1509.66
                             1518.39  1537.16  1685.00  1853.71  1876.01
                             2003.50  2033.25  2074.43  2088.12  2461.87
                             2476.10  2655.71  2672.59  4195.01  4253.33
                             4547.40  4562.50  4609.73  4611.47  4718.43
                             4723.91

 Zero-point correction=                           0.124559 (Hartree/Particle)
 Thermal correction to Energy=                    0.134435
 Thermal correction to Enthalpy=                  0.135379
 Thermal correction to Gibbs Free Energy=         0.086490
 Sum of electronic and zero-point Energies=           -383.289298
 Sum of electronic and thermal Energies=              -383.279422
 Sum of electronic and thermal Enthalpies=            -383.278478
 Sum of electronic and thermal Free Energies=         -383.327368

                     E (Thermal)             CV                S
                      KCal/Mol        Cal/Mol-Kelvin    Cal/Mol-Kelvin
 Total                   84.359             31.141            102.897
 Electronic               0.000              0.000              0.000
 Translational            0.889              2.981             40.057
 Rotational               0.889              2.981             29.475
 Vibrational             82.582             25.180             33.365
 Vibration     1          0.593              1.985              6.421
 Vibration     2          0.595              1.980              5.123
 Vibration     3          0.596              1.975              4.570
 Vibration     4          0.598              1.968              4.141
 Vibration     5          0.607              1.940              3.254
 Vibration     6          0.630              1.864              2.309
 Vibration     7          0.640              1.832              2.084
 Vibration     8          0.689              1.684              1.448
 Vibration     9          0.710              1.624              1.282
 Vibration    10          0.924              1.101              0.509
 Vibration    11          0.938              1.072              0.484
 Vibration    12          0.964              1.021              0.441

 Normal termination of Gaussian 16 at Sat Dec 30 22:30:16 2023.
