 Gaussian 16, Revision C.01,
 Gaussian 16:  ES64L-G16RevC.01  3-Jul-2019

 ----------------------------------------------------------------------
 # wb97xd chkbasis guess=read geom=allchk scrf=(iefpcm,solvent=toluene)
  opt=(readfc,ts,noeigen,maxcycles=50,maxstep=10)
 ----------------------------------------------------------------------

 Structure from the checkpoint file:  "da-1_1_opt_dft.chk"
 ---------------------------
 1c_2m_endo_adj_1_reopt2.out
 ---------------------------
 Charge =  0 Multiplicity = 1

 SCF Done:  E(RwB97XD) =  -383.414115340     A.U. after    1 cycles
 SCF Done:  E(RwB97XD) =  -383.414115486     A.U. after   11 cycles
 SCF Done:  E(RwB97XD) =  -383.414115523     A.U. after    9 cycles
 SCF Done:  E(RwB97XD) =  -383.414115571     A.U. after   10 cycles
 SCF Done:  E(RwB97XD) =  -383.414115577     A.U. after   10 cycles
 SCF Done:  E(RwB97XD) =  -383.414115644     A.U. after   10 cycles
 SCF Done:  E(RwB97XD) =  -383.414115689     A.U. after   10 cycles
 SCF Done:  E(RwB97XD) =  -383.414115691     A.U. after   10 cycles
 SCF Done:  E(RwB97XD) =  -383.414115703     A.U. after    9 cycles
 SCF Done:  E(RwB97XD) =  -383.414115705     A.U. after    9 cycles
 Optimization completed.
    -- Stationary point found.

                         Standard orientation:
 ---------------------------------------------------------------------
 Center     Atomic      Atomic             Coordinates (Angstroms)
 Number     Number       Type             X           Y           Z
 ---------------------------------------------------------------------
      1          8           0       -2.304205    1.237728    0.098848
      2          6           0        1.470274    1.909739    0.255354
      3          6           0       -1.799720   -1.529745    0.644982
      4          6           0        1.445158    0.607869    0.556602
      5          6           0       -1.702963    0.539319   -0.682127
      6          6           0       -1.398064   -0.896852   -0.461014
      7          1           0       -1.329647    0.959871   -1.647413
      8          1           0       -2.371335   -0.991362    1.406813
      9          1           0       -0.821839   -1.412512   -1.234552
     10          1           0        0.937023    2.650815    0.854784
     11          1           0        2.025455    2.276588   -0.614813
     12          1           0        0.892032    0.218649    1.416166
     13          6           0        2.149459   -0.380127   -0.284397
     14          8           0        2.120053   -1.572905   -0.103824
     15          1           0       -1.569802   -2.582852    0.819899
     16          1           0        2.726457    0.061006   -1.137472
 ---------------------------------------------------------------------

 The electronic state is 1-A.
 Alpha  occ. eigenvalues --  -19.26112 -19.25857 -10.39439 -10.39223 -10.33308
 Alpha  occ. eigenvalues --  -10.32437 -10.31973 -10.31367  -1.14444  -1.14156
 Alpha  occ. eigenvalues --   -0.89764  -0.88470  -0.74580  -0.73678  -0.66263
 Alpha  occ. eigenvalues --   -0.62904  -0.60057  -0.57018  -0.56476  -0.53982
 Alpha  occ. eigenvalues --   -0.51310  -0.51228  -0.50290  -0.49092  -0.47556
 Alpha  occ. eigenvalues --   -0.46532  -0.37833  -0.36869  -0.34864  -0.34702
 Alpha virt. eigenvalues --   -0.00289   0.00483   0.12557   0.13928   0.15196
 Alpha virt. eigenvalues --    0.15955   0.16382   0.18492   0.20828   0.21315
 Alpha virt. eigenvalues --    0.23342   0.24050   0.30339   0.31082   0.36943

 Mulliken charges:
               1
     1  O   -0.247446
     2  C   -0.044397
     3  C   -0.016858
     4  C   -0.114191
     5  C    0.179079
     6  C   -0.153566
     7  H    0.020641
     8  H    0.076047
     9  H    0.056838
    10  H    0.088511
    11  H    0.073237
    12  H    0.061553
    13  C    0.168972
    14  O   -0.248192
    15  H    0.081291
    16  H    0.018480
 Sum of Mulliken charges =  -0.00000

 Dipole moment (field-independent basis, Debye):
    X=              0.9456    Y=              1.0591    Z=             -0.9568  Tot=              1.7121
 Quadrupole moment (field-independent basis, Debye-Ang):
   XX=            -53.4433   YY=            -48.8267   ZZ=            -43.6060
   XY=             12.1349   XZ=             -0.7626   YZ=             -2.0379

 Normal termination of Gaussian 16 at Fri Dec 22 23:56:24 2023.
