 Gaussian 16, Revision C.01,
 Gaussian 16:  ES64L-G16RevC.01  3-Jul-2019

 ----------------------------------------------------------------------
 # m062x 6-31g(d) scrf=(iefpcm,solvent=benzene) opt=(calcfc,maxcycles=5
 0,maxstep=10) freq=noraman
 ----------------------------------------------------------------------

 ----------
 Structure1
 ----------
 Symbolic Z-matrix:
 Charge =  0 Multiplicity = 1

 SCF Done:  E(RM062X) =  -1498.45228222     A.U. after   13 cycles
 SCF Done:  E(RM062X) =  -1498.46159511     A.U. after   11 cycles
 SCF Done:  E(RM062X) =  -1498.47034942     A.U. after   12 cycles
 SCF Done:  E(RM062X) =  -1498.47260323     A.U. after   12 cycles
 SCF Done:  E(RM062X) =  -1498.47234362     A.U. after   14 cycles
 SCF Done:  E(RM062X) =  -1498.44606118     A.U. after   13 cycles
 SCF Done:  E(RM062X) =  -1498.44814627     A.U. after   12 cycles
 SCF Done:  E(RM062X) =  -1498.47267770     A.U. after    8 cycles
 SCF Done:  E(RM062X) =  -1498.47268477     A.U. after   10 cycles
 SCF Done:  E(RM062X) =  -1498.47281029     A.U. after   12 cycles
 SCF Done:  E(RM062X) =  -1498.47282441     A.U. after   10 cycles
 SCF Done:  E(RM062X) =  -1498.47283712     A.U. after    9 cycles
 SCF Done:  E(RM062X) =  -1498.47283511     A.U. after   10 cycles
 SCF Done:  E(RM062X) =  -1498.47283830     A.U. after    9 cycles
 SCF Done:  E(RM062X) =  -1498.47284272     A.U. after    8 cycles
 SCF Done:  E(RM062X) =  -1498.47284309     A.U. after    8 cycles
 SCF Done:  E(RM062X) =  -1498.47284327     A.U. after    7 cycles
 SCF Done:  E(RM062X) =  -1498.47284330     A.U. after    6 cycles
 Optimization completed.
    -- Stationary point found.
 Normal termination of Gaussian 16 at Thu Dec 14 18:13:32 2023.

 --------------------------------------------------------------------
 #N Geom=AllCheck Guess=TCheck SCRF=Check GenChk RM062X/6-31G(d) Freq
 --------------------------------------------------------------------

 Structure from the checkpoint file:  "berkessel_OPLS3e_1_opt_hess.chk"
 ----------
 Structure1
 ----------
 Charge =  0 Multiplicity = 1

                         Standard orientation:
 ---------------------------------------------------------------------
 Center     Atomic      Atomic             Coordinates (Angstroms)
 Number     Number       Type             X           Y           Z
 ---------------------------------------------------------------------
      1          6           0       -1.099369    1.034318   -0.230334
      2          6           0       -2.414327    1.310636    0.113020
      3          6           0       -3.341235    0.290222    0.294737
      4          6           0       -2.908645   -1.018728    0.116834
      5          6           0       -1.597829   -1.327404   -0.230101
      6          6           0       -0.672403   -0.289147   -0.406013
      7          1           0       -0.390268    1.848068   -0.356842
      8          6           0       -2.844768    2.744273    0.239183
      9          1           0       -4.364486    0.508666    0.576617
     10          6           0       -3.899504   -2.142212    0.249235
     11          1           0       -1.287883   -2.354401   -0.364904
     12          7           0        0.669168   -0.481917   -0.715091
     13          9           0       -4.460351   -2.445480   -0.932082
     14          9           0       -3.326778   -3.262913    0.708649
     15          9           0       -4.899474   -1.826580    1.086144
     16          9           0       -3.901140    2.879112    1.051655
     17          9           0       -1.859394    3.517648    0.722916
     18          9           0       -3.193638    3.262314   -0.949181
     19          1           0        1.252587    0.354161   -0.890245
     20          6           0        1.278831   -1.666149   -1.055601
     21          8           0        0.696779   -2.725886   -1.228652
     22          7           0        2.647985   -1.532332   -1.291107
     23          1           0        2.976863   -2.430914   -1.632494
     24          6           0        5.118280   -1.411018    1.641777
     25          6           0        3.928201   -1.902507    0.815879
     26          6           0        3.636939   -0.957818   -0.359631
     27          6           0        3.325063    0.447434    0.185791
     28          6           0        4.561050    0.952874    0.951084
     29          6           0        4.896465    0.023180    2.121048
     30          1           0        6.023486   -1.448989    1.020572
     31          1           0        5.288873   -2.079204    2.491787
     32          1           0        3.028436   -1.972018    1.442993
     33          1           0        4.123570   -2.907935    0.425888
     34          1           0        4.557875   -0.874494   -0.953457
     35          7           0        2.805853    1.353937   -0.850325
     36          1           0        2.511035    0.347173    0.919979
     37          1           0        5.419515    1.016250    0.268668
     38          1           0        4.373053    1.963095    1.327918
     39          1           0        4.064867    0.040729    2.838265
     40          1           0        5.780272    0.391669    2.651535
     41          6           0        2.456579    2.667634   -0.321653
     42          6           0        3.641863    1.469733   -2.040140
     43          1           0        1.846547    3.198404   -1.059080
     44          1           0        1.870671    2.550665    0.596635
     45          1           0        3.333027    3.293316   -0.094827
     46          1           0        3.145214    2.138015   -2.748723
     47          1           0        4.638662    1.885065   -1.822743
     48          1           0        3.748641    0.493130   -2.516261
 ---------------------------------------------------------------------

 SCF Done:  E(RM062X) =  -1498.47284330     A.U. after    1 cycles

 The electronic state is 1-A.
 Alpha  occ. eigenvalues --  -25.28763 -25.28721 -25.28271 -25.28153 -25.28141
 Alpha  occ. eigenvalues --  -25.27632 -19.61119 -14.78874 -14.77686 -14.77628
 Alpha  occ. eigenvalues --  -10.80288 -10.79769 -10.68346 -10.61673 -10.59948
 Alpha  occ. eigenvalues --  -10.59203 -10.58524 -10.58245 -10.57762 -10.57514
 Alpha  occ. eigenvalues --  -10.57261 -10.57159 -10.56632 -10.55206 -10.55138
 Alpha  occ. eigenvalues --  -10.54977 -10.54897  -1.45746  -1.45239  -1.36571
 Alpha  occ. eigenvalues --   -1.36077  -1.36042  -1.35575  -1.17597  -1.06583
 Alpha  occ. eigenvalues --   -1.04781  -1.02302  -0.98275  -0.93477  -0.90681
 Alpha  occ. eigenvalues --   -0.87227  -0.84748  -0.84113  -0.81237  -0.80823
 Alpha  occ. eigenvalues --   -0.80039  -0.75628  -0.74056  -0.72930  -0.71587
 Alpha  occ. eigenvalues --   -0.70097  -0.68282  -0.68097  -0.67701  -0.67584
 Alpha  occ. eigenvalues --   -0.67240  -0.65663  -0.64704  -0.61580  -0.60138
 Alpha  occ. eigenvalues --   -0.59165  -0.58551  -0.56863  -0.56259  -0.56082
 Alpha  occ. eigenvalues --   -0.55951  -0.55487  -0.55304  -0.54538  -0.54142
 Alpha  occ. eigenvalues --   -0.53262  -0.52104  -0.51957  -0.51567  -0.51505
 Alpha  occ. eigenvalues --   -0.51205  -0.51007  -0.50749  -0.50067  -0.49966
 Alpha  occ. eigenvalues --   -0.49454  -0.49225  -0.48200  -0.47582  -0.47296
 Alpha  occ. eigenvalues --   -0.46596  -0.45913  -0.45047  -0.44465  -0.44287
 Alpha  occ. eigenvalues --   -0.43868  -0.42252  -0.41912  -0.41222  -0.40114
 Alpha  occ. eigenvalues --   -0.39520  -0.38332  -0.37454  -0.34979  -0.33114
 Alpha  occ. eigenvalues --   -0.31374  -0.29513  -0.27770
 Alpha virt. eigenvalues --   -0.00132   0.01004   0.08789   0.10249   0.11416
 Alpha virt. eigenvalues --    0.12428   0.13589   0.15006   0.16669   0.17324
 Alpha virt. eigenvalues --    0.17800   0.17999   0.18309   0.18493   0.18895

 Mulliken charges:
               1
     1  C   -0.235127
     2  C   -0.077167
     3  C   -0.197531
     4  C   -0.091611
     5  C   -0.182665
     6  C    0.342737
     7  H    0.193329
     8  C    0.830433
     9  H    0.211364
    10  C    0.831474
    11  H    0.240864
    12  N   -0.800511
    13  F   -0.270297
    14  F   -0.277070
    15  F   -0.281096
    16  F   -0.277846
    17  F   -0.282475
    18  F   -0.270382
    19  H    0.423067
    20  C    0.744413
    21  O   -0.547638
    22  N   -0.662213
    23  H    0.357263
    24  C   -0.305705
    25  C   -0.295554
    26  C   -0.018656
    27  C    0.014058
    28  C   -0.313033
    29  C   -0.303960
    30  H    0.154006
    31  H    0.170124
    32  H    0.163786
    33  H    0.164498
    34  H    0.163067
    35  N   -0.487769
    36  H    0.155846
    37  H    0.156560
    38  H    0.169447
    39  H    0.157414
    40  H    0.167187
    41  C   -0.339096
    42  C   -0.339655
    43  H    0.183417
    44  H    0.175276
    45  H    0.162817
    46  H    0.179098
    47  H    0.151296
    48  H    0.194218
 Sum of Mulliken charges =  -0.00000

 Dipole moment (field-independent basis, Debye):
    X=              8.4106    Y=              3.0066    Z=              0.9078  Tot=              8.9779
 Quadrupole moment (field-independent basis, Debye-Ang):
   XX=           -142.7030   YY=           -166.3420   ZZ=           -155.7272
   XY=             -1.3264   XZ=             -0.6741   YZ=             -4.5380

  Exact polarizability:     275.509      -3.418     235.890     -11.773       4.274     158.188
 Approx polarizability:     273.384      -0.482     259.690     -21.667       8.460     183.047

                      1                      2                      3
                      A                      A                      A
 Frequencies --     15.0829                20.6951                21.9578
 Red. masses --      6.4545                 4.8982                18.5446
 Frc consts  --      0.0009                 0.0012                 0.0053
 IR Inten    --      0.4658                 0.3870                 0.0426

                      4                      5                      6
                      A                      A                      A
 Frequencies --     24.2524                45.6097                73.8233
 Red. masses --     18.2324                 4.8683                 8.7642
 Frc consts  --      0.0063                 0.0060                 0.0281
 IR Inten    --      0.0485                 0.6665                 3.1940

                      7                      8                      9
                      A                      A                      A
 Frequencies --     78.9043                97.4021               102.6981
 Red. masses --      7.4529                 5.2146                 4.2187
 Frc consts  --      0.0273                 0.0291                 0.0262
 IR Inten    --      2.0730                 2.3257                 0.1817

                     10                     11                     12
                      A                      A                      A
 Frequencies --    113.4126               127.1695               131.5014
 Red. masses --      3.7339                 4.5836                 5.1501
 Frc consts  --      0.0283                 0.0437                 0.0525
 IR Inten    --      1.2257                 0.6991                 1.2564

                     13                     14                     15
                      A                      A                      A
 Frequencies --    152.8415               176.2897               191.9064
 Red. masses --      7.2274                 2.8683                 4.3089
 Frc consts  --      0.0995                 0.0525                 0.0935
 IR Inten    --      0.0917                 0.0745                 4.2810

                     16                     17                     18
                      A                      A                      A
 Frequencies --    230.6007               249.5356               256.4525
 Red. masses --     10.2526                 1.5639                 3.0052
 Frc consts  --      0.3212                 0.0574                 0.1165
 IR Inten    --      6.3966                 0.2610                 0.5191

                     19                     20                     21
                      A                      A                      A
 Frequencies --    281.0536               287.2958               292.4299
 Red. masses --      3.5075                 4.7128                 8.7378
 Frc consts  --      0.1632                 0.2292                 0.4402
 IR Inten    --      1.1381                 2.1203                 3.4187

                     22                     23                     24
                      A                      A                      A
 Frequencies --    301.0812               304.6208               317.3086
 Red. masses --      2.1570                 1.2141                 4.2907
 Frc consts  --      0.1152                 0.0664                 0.2545
 IR Inten    --      1.5031                 0.9165                 0.3789

                     25                     26                     27
                      A                      A                      A
 Frequencies --    325.6422               356.3251               361.2090
 Red. masses --      1.8222                 5.0414                 8.8870
 Frc consts  --      0.1139                 0.3771                 0.6832
 IR Inten    --      1.2227                 2.9407                 0.1107

                     28                     29                     30
                      A                      A                      A
 Frequencies --    385.0367               407.7484               417.9345
 Red. masses --      5.5812                 6.9002                 3.0686
 Frc consts  --      0.4875                 0.6759                 0.3158
 IR Inten    --      5.4228                 7.2422                 3.2883

                     31                     32                     33
                      A                      A                      A
 Frequencies --    434.4302               451.1023               464.2486
 Red. masses --      3.9152                 2.5723                 3.6091
 Frc consts  --      0.4354                 0.3084                 0.4583
 IR Inten    --      4.9577                10.2767                26.0936

                     34                     35                     36
                      A                      A                      A
 Frequencies --    469.2149               497.1722               509.1323
 Red. masses --      6.4395                 2.1235                12.4903
 Frc consts  --      0.8353                 0.3093                 1.9076
 IR Inten    --      1.1051                 1.9377                 0.2388

                     37                     38                     39
                      A                      A                      A
 Frequencies --    532.3664               538.0389               578.1204
 Red. masses --      7.1300                 6.2795                 2.9386
 Frc consts  --      1.1906                 1.0710                 0.5787
 IR Inten    --     10.4917                17.5163                 5.5361

                     40                     41                     42
                      A                      A                      A
 Frequencies --    582.1251               617.7705               629.3962
 Red. masses --      9.3821                 6.9267                 2.4590
 Frc consts  --      1.8732                 1.5575                 0.5739
 IR Inten    --      0.8214                 1.4918                90.9998

                     43                     44                     45
                      A                      A                      A
 Frequencies --    649.3554               688.0792               691.2966
 Red. masses --      4.8210                 8.5562                 9.3595
 Frc consts  --      1.1977                 2.3867                 2.6353
 IR Inten    --      1.4578                36.4255                29.9858

                     46                     47                     48
                      A                      A                      A
 Frequencies --    702.2114               724.4992               751.1341
 Red. masses --      6.1364                 2.5173                 6.0273
 Frc consts  --      1.7828                 0.7785                 2.0036
 IR Inten    --     11.8212                14.0483                15.4459

                     49                     50                     51
                      A                      A                      A
 Frequencies --    791.9538               799.2719               812.6192
 Red. masses --      2.5844                 3.5163                 2.1324
 Frc consts  --      0.9550                 1.3235                 0.8296
 IR Inten    --      3.3432                53.4603                47.1149

                     52                     53                     54
                      A                      A                      A
 Frequencies --    856.7836               869.2902               882.0798
 Red. masses --      2.4958                 1.9817                 8.0968
 Frc consts  --      1.0795                 0.8823                 3.7118
 IR Inten    --      8.5140                11.2306                12.1515

                     55                     56                     57
                      A                      A                      A
 Frequencies --    901.7657               904.6298               912.3150
 Red. masses --      1.7564                 1.7029                 1.6960
 Frc consts  --      0.8415                 0.8211                 0.8317
 IR Inten    --     20.4010                35.0359                43.1405

                     58                     59                     60
                      A                      A                      A
 Frequencies --    917.6305               941.8169               950.5210
 Red. masses --      1.6036                 1.3866                 1.8098
 Frc consts  --      0.7956                 0.7247                 0.9634
 IR Inten    --      9.3567                35.4417                29.3062

                     61                     62                     63
                      A                      A                      A
 Frequencies --    965.8007               981.9680              1000.2155
 Red. masses --      2.1144                 2.3312                 1.9126
 Frc consts  --      1.1620                 1.3244                 1.1273
 IR Inten    --     25.1558                 2.3602                41.2269

                     64                     65                     66
                      A                      A                      A
 Frequencies --   1017.0056              1038.5892              1077.5150
 Red. masses --      6.1527                 3.2570                 2.0464
 Frc consts  --      3.7494                 2.0699                 1.3999
 IR Inten    --     13.4246                19.8066                16.8321

                     67                     68                     69
                      A                      A                      A
 Frequencies --   1083.0070              1086.7629              1105.5306
 Red. masses --      1.4645                 1.5171                 1.6919
 Frc consts  --      1.0120                 1.0557                 1.2184
 IR Inten    --      4.3923                 9.2124                27.9694

                     70                     71                     72
                      A                      A                      A
 Frequencies --   1118.0444              1132.2051              1144.0323
 Red. masses --      2.0651                 1.4065                 1.9506
 Frc consts  --      1.5209                 1.0623                 1.5042
 IR Inten    --      8.1460                 2.8329                29.0620

                     73                     74                     75
                      A                      A                      A
 Frequencies --   1144.6218              1149.3656              1157.1092
 Red. masses --      1.8315                 1.8612                 1.9427
 Frc consts  --      1.4137                 1.4487                 1.5325
 IR Inten    --     11.8125                43.2970                 1.0360

                     76                     77                     78
                      A                      A                      A
 Frequencies --   1176.9293              1207.1007              1244.8959
 Red. masses --      2.1859                 1.5629                 2.1107
 Frc consts  --      1.7840                 1.3417                 1.9273
 IR Inten    --     20.8255                25.0141                11.0496

                     79                     80                     81
                      A                      A                      A
 Frequencies --   1249.8852              1253.2202              1263.8311
 Red. masses --     12.5317                12.3951                 1.8698
 Frc consts  --     11.5346                11.4697                 1.7596
 IR Inten    --     75.2711               527.9542                43.1757

                     82                     83                     84
                      A                      A                      A
 Frequencies --   1266.6028              1274.4772              1280.5362
 Red. masses --      4.4563                 5.2491                 1.6372
 Frc consts  --      4.2122                 5.0234                 1.5817
 IR Inten    --     89.8445               219.1547               269.8868

                     85                     86                     87
                      A                      A                      A
 Frequencies --   1298.5919              1302.1540              1305.6082
 Red. masses --      2.4077                 1.5313                 1.8109
 Frc consts  --      2.3922                 1.5298                 1.8187
 IR Inten    --    138.5735               149.8277                 7.9571

                     88                     89                     90
                      A                      A                      A
 Frequencies --   1320.2121              1330.3076              1331.6327
 Red. masses --      1.7242                 2.4810                 3.5343
 Frc consts  --      1.7706                 2.5869                 3.6925
 IR Inten    --    137.3415               186.4445               561.2406

                     91                     92                     93
                      A                      A                      A
 Frequencies --   1348.3770              1373.4204              1379.8069
 Red. masses --      1.3747                 2.5079                 1.4619
 Frc consts  --      1.4726                 2.7872                 1.6398
 IR Inten    --     55.2385                15.4707                 5.5326

                     94                     95                     96
                      A                      A                      A
 Frequencies --   1383.0930              1392.0057              1398.6888
 Red. masses --      1.7870                 1.5758                 1.4025
 Frc consts  --      2.0141                 1.7990                 1.6166
 IR Inten    --     57.2181                40.6327                 9.3225

                     97                     98                     99
                      A                      A                      A
 Frequencies --   1408.8054              1434.2923              1442.4097
 Red. masses --      1.5632                 1.4866                 1.3325
 Frc consts  --      1.8280                 1.8018                 1.6334
 IR Inten    --      0.1482                52.4430                12.7293

                    100                    101                    102
                      A                      A                      A
 Frequencies --   1455.9193              1462.0920              1491.3812
 Red. masses --      7.8668                 1.1734                 1.2042
 Frc consts  --      9.8247                 1.4779                 1.5780
 IR Inten    --    368.4105                 7.6245                20.7223

                    103                    104                    105
                      A                      A                      A
 Frequencies --   1500.3986              1511.0562              1512.0440
 Red. masses --      1.2124                 1.0979                 1.1589
 Frc consts  --      1.6080                 1.4770                 1.5611
 IR Inten    --     11.5896                 3.0949                 2.4806

                    106                    107                    108
                      A                      A                      A
 Frequencies --   1512.7309              1516.9557              1518.4949
 Red. masses --      1.2631                 2.2197                 1.2656
 Frc consts  --      1.7030                 3.0095                 1.7194
 IR Inten    --     38.0352                24.0690                22.7360

                    109                    110                    111
                      A                      A                      A
 Frequencies --   1529.7551              1530.9692              1534.4346
 Red. masses --      1.0746                 1.1102                 1.0495
 Frc consts  --      1.4817                 1.5332                 1.4558
 IR Inten    --     11.4043                 0.1257                17.8639

                    112                    113                    114
                      A                      A                      A
 Frequencies --   1544.0176              1550.2463              1654.4024
 Red. masses --      4.6358                 1.0530                 1.8361
 Frc consts  --      6.5114                 1.4911                 2.9609
 IR Inten    --    153.5513                11.8223               706.8426

                    115                    116                    117
                      A                      A                      A
 Frequencies --   1706.0207              1708.1259              1825.1241
 Red. masses --      6.2033                 5.0159                 6.8617
 Frc consts  --     10.6376                 8.6227                13.4669
 IR Inten    --     33.6664                55.9173               552.5427

                    118                    119                    120
                      A                      A                      A
 Frequencies --   3032.9828              3039.3599              3047.4018
 Red. masses --      1.0525                 1.0461                 1.0809
 Frc consts  --      5.7046                 5.6936                 5.9142
 IR Inten    --     96.8536                84.9647                16.5972

                    121                    122                    123
                      A                      A                      A
 Frequencies --   3061.4432              3066.2513              3071.7794
 Red. masses --      1.0749                 1.0710                 1.0665
 Frc consts  --      5.9360                 5.9328                 5.9291
 IR Inten    --      7.7276                14.3779                15.1664

                    124                    125                    126
                      A                      A                      A
 Frequencies --   3072.1686              3078.7912              3117.3170
 Red. masses --      1.0677                 1.0661                 1.0903
 Frc consts  --      5.9373                 5.9540                 6.2425
 IR Inten    --     17.1811                90.3504                41.2911

                    127                    128                    129
                      A                      A                      A
 Frequencies --   3120.8626              3128.5251              3132.0094
 Red. masses --      1.1012                 1.0963                 1.1010
 Frc consts  --      6.3194                 6.3221                 6.3636
 IR Inten    --     37.9229                57.4554                41.2134

                    130                    131                    132
                      A                      A                      A
 Frequencies --   3138.1489              3140.2901              3155.7809
 Red. masses --      1.0936                 1.0896                 1.1045
 Frc consts  --      6.3453                 6.3309                 6.4808
 IR Inten    --     37.3729                16.8110                28.5439

                    133                    134                    135
                      A                      A                      A
 Frequencies --   3183.0830              3188.0458              3230.2546
 Red. masses --      1.0887                 1.1015                 1.0912
 Frc consts  --      6.4992                 6.5959                 6.7087
 IR Inten    --   1077.3438                71.9890                 2.0529

                    136                    137                    138
                      A                      A                      A
 Frequencies --   3267.2327              3299.5869              3578.9582
 Red. masses --      1.0923                 1.0918                 1.0747
 Frc consts  --      6.8697                 7.0034                 8.1103
 IR Inten    --      2.0882                15.8754                33.2110

 - Thermochemistry -
 -------------------
 Temperature   298.150 Kelvin.  Pressure   1.00000 Atm.
 Atom     1 has atomic number  6 and mass  12.00000

 Molecular mass:   397.15888 amu.
 Principal axes and moments of inertia in atomic units:
                           1         2         3
     Eigenvalues --  7399.47902********************
           X            0.99997   0.00246   0.00705
           Y           -0.00238   0.99993  -0.01117
           Z           -0.00708   0.01115   0.99991
 This molecule is an asymmetric top.
 Rotational symmetry number  1.
 Warning -- assumption of classical behavior for rotation
           may cause significant error
 Rotational temperatures (Kelvin)      0.01171     0.00514     0.00404
 Rotational constants (GHZ):           0.24390     0.10715     0.08411
 Zero-point vibrational energy    1012527.0 (Joules/Mol)
                                  241.99976 (Kcal/Mol)
 Warning -- explicit consideration of  41 degrees of freedom as
           vibrations may cause significant error
 Vibrational temperatures:     21.70    29.78    31.59    34.89    65.62
          (Kelvin)            106.22   113.53   140.14   147.76   163.18
                              182.97   189.20   219.90   253.64   276.11
                              331.78   359.03   368.98   404.37   413.35
                              420.74   433.19   438.28   456.54   468.53
                              512.67   519.70   553.98   586.66   601.31
                              625.05   649.04   667.95   675.10   715.32
                              732.53   765.96   774.12   831.79   837.55
                              888.83   905.56   934.28   989.99   994.62
                             1010.33  1042.39  1080.71  1139.44  1149.97
                             1169.18  1232.72  1250.71  1269.12  1297.44
                             1301.56  1312.62  1320.27  1355.06  1367.59
                             1389.57  1412.83  1439.09  1463.24  1494.30
                             1550.30  1558.21  1563.61  1590.61  1608.62
                             1628.99  1646.01  1646.86  1653.68  1664.82
                             1693.34  1736.75  1791.13  1798.31  1803.10
                             1818.37  1822.36  1833.69  1842.41  1868.38
                             1873.51  1878.48  1899.49  1914.02  1915.92
                             1940.01  1976.05  1985.23  1989.96  2002.79
                             2012.40  2026.96  2063.63  2075.31  2094.74
                             2103.62  2145.76  2158.74  2174.07  2175.49
                             2176.48  2182.56  2184.78  2200.98  2202.72
                             2207.71  2221.50  2230.46  2380.32  2454.58
                             2457.61  2625.95  4363.79  4372.96  4384.53
                             4404.73  4411.65  4419.61  4420.17  4429.69
                             4485.12  4490.23  4501.25  4506.26  4515.10
                             4518.18  4540.46  4579.75  4586.89  4647.62
                             4700.82  4747.37  5149.32

 Zero-point correction=                           0.385651 (Hartree/Particle)
 Thermal correction to Energy=                    0.410525
 Thermal correction to Enthalpy=                  0.411469
 Thermal correction to Gibbs Free Energy=         0.327867
 Sum of electronic and zero-point Energies=          -1498.087192
 Sum of electronic and thermal Energies=             -1498.062318
 Sum of electronic and thermal Enthalpies=           -1498.061374
 Sum of electronic and thermal Free Energies=        -1498.144976

                     E (Thermal)             CV                S
                      KCal/Mol        Cal/Mol-Kelvin    Cal/Mol-Kelvin
 Total                  257.608             94.439            175.955
 Electronic               0.000              0.000              0.000
 Translational            0.889              2.981             43.829
 Rotational               0.889              2.981             36.234
 Vibrational            255.831             88.478             95.891
 Vibration     1          0.593              1.986              7.195
 Vibration     2          0.593              1.986              6.566
 Vibration     3          0.593              1.985              6.449
 Vibration     4          0.593              1.985              6.251
 Vibration     5          0.595              1.979              4.999
 Vibration     6          0.599              1.966              4.049
 Vibration     7          0.600              1.963              3.918
 Vibration     8          0.603              1.951              3.506
 Vibration     9          0.605              1.947              3.402
 Vibration    10          0.607              1.938              3.210
 Vibration    11          0.611              1.926              2.988
 Vibration    12          0.612              1.922              2.924
 Vibration    13          0.619              1.900              2.637
 Vibration    14          0.628              1.872              2.367
 Vibration    15          0.634              1.851              2.209
 Vibration    16          0.652              1.794              1.874
 Vibration    17          0.662              1.764              1.734
 Vibration    18          0.666              1.752              1.686
 Vibration    19          0.681              1.709              1.527
 Vibration    20          0.684              1.697              1.490
 Vibration    21          0.688              1.688              1.460
 Vibration    22          0.693              1.672              1.411
 Vibration    23          0.696              1.665              1.391
 Vibration    24          0.704              1.641              1.324
 Vibration    25          0.710              1.624              1.282
 Vibration    26          0.732              1.562              1.138
 Vibration    27          0.735              1.552              1.117
 Vibration    28          0.754              1.502              1.019
 Vibration    29          0.772              1.453              0.935
 Vibration    30          0.781              1.431              0.899
 Vibration    31          0.795              1.395              0.844
 Vibration    32          0.810              1.358              0.792
 Vibration    33          0.822              1.329              0.754
 Vibration    34          0.826              1.318              0.740
 Vibration    35          0.853              1.256              0.665
 Vibration    36          0.864              1.230              0.636
 Vibration    37          0.887              1.178              0.582
 Vibration    38          0.893              1.166              0.570
 Vibration    39          0.935              1.079              0.489
 Vibration    40          0.939              1.070              0.481
 Vibration    41          0.978              0.994              0.420

 Optimization completed.
    -- Stationary point found.
 Normal termination of Gaussian 16 at Thu Dec 14 18:26:03 2023.
