 Gaussian 16, Revision C.01,
 Gaussian 16:  ES64L-G16RevC.01  3-Jul-2019

 ----------------------------------------------------------------------
 # m062x 6-31g(d) scrf=(iefpcm,solvent=benzene) opt=(calcfc,maxcycles=5
 0,maxstep=10) freq=noraman
 ----------------------------------------------------------------------

 ------------
 Structure506
 ------------
 Symbolic Z-matrix:
 Charge =  0 Multiplicity = 1

 SCF Done:  E(RM062X) =  -727.909778776     A.U. after   14 cycles
 SCF Done:  E(RM062X) =  -727.917885670     A.U. after   13 cycles
 SCF Done:  E(RM062X) =  -727.925791726     A.U. after   13 cycles
 SCF Done:  E(RM062X) =  -727.927368594     A.U. after   15 cycles
 SCF Done:  E(RM062X) =  -727.927221903     A.U. after   15 cycles
 SCF Done:  E(RM062X) =  -727.907786655     A.U. after   14 cycles
 SCF Done:  E(RM062X) =  -727.907672912     A.U. after   13 cycles
 SCF Done:  E(RM062X) =  -727.927463798     A.U. after    9 cycles
 SCF Done:  E(RM062X) =  -727.928244312     A.U. after   16 cycles
 SCF Done:  E(RM062X) =  -727.926585832     A.U. after   16 cycles
 SCF Done:  E(RM062X) =  -727.928397234     A.U. after   12 cycles
 SCF Done:  E(RM062X) =  -727.928643857     A.U. after   12 cycles
 SCF Done:  E(RM062X) =  -727.928658777     A.U. after   12 cycles
 SCF Done:  E(RM062X) =  -727.928661117     A.U. after   11 cycles
 SCF Done:  E(RM062X) =  -727.928661705     A.U. after   10 cycles
 SCF Done:  E(RM062X) =  -727.928661984     A.U. after    9 cycles
 SCF Done:  E(RM062X) =  -727.928662013     A.U. after    8 cycles
 SCF Done:  E(RM062X) =  -727.928662133     A.U. after    9 cycles
 SCF Done:  E(RM062X) =  -727.928662359     A.U. after   10 cycles
 Optimization completed.
    -- Stationary point found.

 1\1\GINC-NODE-005\FOpt\RM062X\6-31G(d)\C13H12O3\JP2658\14-Dec-2023\0\\
 # m062x 6-31g(d) scrf=(iefpcm,solvent=benzene) opt=(calcfc,maxcycles=5
 0,maxstep=10) freq=noraman\\Structure506\\0,1\C,1.2208371722,-0.796559
 7244,0.0756461513\C,0.7343657821,-0.4763654971,-1.1910299545\C,-0.5148
 031724,0.1158596788,-1.3283553583\C,-1.2869367323,0.3915272578,-0.1905
 566975\C,-0.7935909789,0.0680519838,1.0819089553\C,0.456745015,-0.5239
 235804,1.2094984892\H,2.1973042788,-1.259037618,0.1793786348\H,1.33012
 46135,-0.6884622683,-2.0728594787\H,-0.9034303251,0.3702021025,-2.3089

 Normal termination of Gaussian 16 at Thu Dec 14 18:35:45 2023.

 --------------------------------------------------------------------
 #N Geom=AllCheck Guess=TCheck SCRF=Check GenChk RM062X/6-31G(d) Freq
 --------------------------------------------------------------------

 Structure from the checkpoint file:  "hexynoate_OPLS3e_1_opt_hess.chk"
 ------------
 Structure506
 ------------
 Charge =  0 Multiplicity = 1

                         Standard orientation:
 ---------------------------------------------------------------------
 Center     Atomic      Atomic             Coordinates (Angstroms)
 Number     Number       Type             X           Y           Z
 ---------------------------------------------------------------------
      1          6           0       -5.822846   -0.064222   -0.419470
      2          6           0       -5.090549    1.111155   -0.580338
      3          6           0       -3.720151    1.114905   -0.352284
      4          6           0       -3.073329   -0.065846    0.040423
      5          6           0       -3.813794   -1.246180    0.200792
      6          6           0       -5.183814   -1.240403   -0.029566
      7          1           0       -6.893375   -0.063693   -0.598638
      8          1           0       -5.588800    2.025938   -0.884400
      9          1           0       -3.139782    2.023398   -0.475040
     10          6           0       -1.661735   -0.068551    0.277929
     11          1           0       -3.304561   -2.154925    0.503998
     12          1           0       -5.754671   -2.154813    0.094722
     13          6           0       -0.467762   -0.089603    0.482906
     14          6           0        0.966573   -0.074449    0.725134
     15          8           0        1.568767   -1.069672    1.072749
     16          6           0        1.649791    1.264942    0.529870
     17          1           0        1.435803    1.608155   -0.488015
     18          1           0        1.189247    1.987139    1.213752
     19          6           0        3.145948    1.155878    0.764076
     20          1           0        3.617571    2.143307    0.713888
     21          1           0        3.367399    0.736802    1.748223
     22          6           0        3.789941    0.280573   -0.287397
     23          8           0        3.290740   -0.003933   -1.349978
     24          8           0        5.010701   -0.120653    0.087975
     25          6           0        5.696579   -0.939858   -0.860893
     26          1           0        6.656563   -1.179109   -0.407073
     27          1           0        5.838372   -0.398616   -1.798671
     28          1           0        5.125467   -1.849565   -1.055795
 ---------------------------------------------------------------------

 SCF Done:  E(RM062X) =  -727.928662359     A.U. after    1 cycles

 The electronic state is 1-A.
 Alpha  occ. eigenvalues --  -19.68288 -19.64546 -19.62839 -10.67864 -10.66115
 Alpha  occ. eigenvalues --  -10.59410 -10.58660 -10.57385 -10.56893 -10.56816
 Alpha  occ. eigenvalues --  -10.56566 -10.56309 -10.56268 -10.56218 -10.56139
 Alpha  occ. eigenvalues --  -10.55769  -1.23110  -1.17626  -1.13484  -0.97820
 Alpha  occ. eigenvalues --   -0.90943  -0.89316  -0.85541  -0.84966  -0.82448
 Alpha  occ. eigenvalues --   -0.77159  -0.71887  -0.70059  -0.67875  -0.63964
 Alpha  occ. eigenvalues --   -0.61868  -0.59456  -0.58388  -0.56353  -0.55663
 Alpha  occ. eigenvalues --   -0.55505  -0.53310  -0.52968  -0.51794  -0.50940
 Alpha  occ. eigenvalues --   -0.49940  -0.48261  -0.47634  -0.45976  -0.44434
 Alpha  occ. eigenvalues --   -0.43459  -0.42766  -0.42513  -0.42079  -0.41753
 Alpha  occ. eigenvalues --   -0.37752  -0.36804  -0.34852  -0.34479  -0.33844
 Alpha  occ. eigenvalues --   -0.31781  -0.29490
 Alpha virt. eigenvalues --   -0.03468   0.02357   0.04145   0.06624   0.07894
 Alpha virt. eigenvalues --    0.13287   0.14789   0.15464   0.16881   0.18362
 Alpha virt. eigenvalues --    0.18605   0.19184   0.19776   0.20923   0.21313

 Mulliken charges:
               1
     1  C   -0.158567
     2  C   -0.172198
     3  C   -0.148246
     4  C    0.012721
     5  C   -0.141304
     6  C   -0.174182
     7  H    0.183698
     8  H    0.184024
     9  H    0.191032
    10  C   -0.042809
    11  H    0.198226
    12  H    0.185252
    13  C   -0.077490
    14  C    0.385178
    15  O   -0.455383
    16  C   -0.391437
    17  H    0.214767
    18  H    0.205066
    19  C   -0.394185
    20  H    0.211052
    21  H    0.209560
    22  C    0.656327
    23  O   -0.506225
    24  O   -0.487689
    25  C   -0.248514
    26  H    0.187819
    27  H    0.182592
    28  H    0.190913
 Sum of Mulliken charges =  -0.00000

 Dipole moment (field-independent basis, Debye):
    X=             -2.1429    Y=              2.4756    Z=              0.1450  Tot=              3.2774
 Quadrupole moment (field-independent basis, Debye-Ang):
   XX=            -60.4752   YY=            -83.8960   ZZ=            -96.6959
   XY=              2.4782   XZ=              1.2921   YZ=              1.6782

  Exact polarizability:     262.269      -4.615     138.667      24.974     -10.442      87.462
 Approx polarizability:     250.054      -8.119     162.763      31.736     -15.496     106.641

                      1                      2                      3
                      A                      A                      A
 Frequencies --     17.5704                20.5477                27.9781
 Red. masses --      6.0402                 3.9815                 4.7251
 Frc consts  --      0.0011                 0.0010                 0.0022
 IR Inten    --      2.1022                 0.6545                 1.9104

                      4                      5                      6
                      A                      A                      A
 Frequencies --     50.3328                74.4831                96.1245
 Red. masses --      5.0832                 5.6723                 5.2444
 Frc consts  --      0.0076                 0.0185                 0.0286
 IR Inten    --      1.8631                 0.1197                 1.4583

                      7                      8                      9
                      A                      A                      A
 Frequencies --    141.7717               148.9732               169.9572
 Red. masses --      5.4722                 1.3566                 2.8266
 Frc consts  --      0.0648                 0.0177                 0.0481
 IR Inten    --      0.6943                 1.3501                 2.5976

                     10                     11                     12
                      A                      A                      A
 Frequencies --    191.3186               223.9564               263.0047
 Red. masses --      5.4937                 2.6724                 3.6490
 Frc consts  --      0.1185                 0.0790                 0.1487
 IR Inten    --      2.4225                 4.5972                 2.2287

                     13                     14                     15
                      A                      A                      A
 Frequencies --    293.8376               352.9714               391.7134
 Red. masses --      4.2764                 4.3413                 4.7043
 Frc consts  --      0.2175                 0.3187                 0.4253
 IR Inten    --      8.6673                50.5154                 0.3619

                     16                     17                     18
                      A                      A                      A
 Frequencies --    411.5270               428.7301               509.5834
 Red. masses --      2.9432                 5.3973                 6.3185
 Frc consts  --      0.2937                 0.5845                 0.9667
 IR Inten    --      0.0015                 2.1540                12.5264

                     19                     20                     21
                      A                      A                      A
 Frequencies --    537.8210               571.7811               582.3056
 Red. masses --      2.4834                 3.5180                 4.8869
 Frc consts  --      0.4232                 0.6777                 0.9763
 IR Inten    --      1.2697                11.4729                 9.7744

                     22                     23                     24
                      A                      A                      A
 Frequencies --    585.2737               618.5982               635.3860
 Red. masses --      3.4279                 6.7868                 6.7638
 Frc consts  --      0.6918                 1.5301                 1.6089
 IR Inten    --      6.3447                11.2191                 1.7286

                     25                     26                     27
                      A                      A                      A
 Frequencies --    691.4777               707.6980               740.4368
 Red. masses --      4.1801                 1.9951                 4.4177
 Frc consts  --      1.1776                 0.5887                 1.4270
 IR Inten    --      1.1125                30.1776                 1.5289

                     28                     29                     30
                      A                      A                      A
 Frequencies --    785.7979               861.6882               876.5540
 Red. masses --      1.7193                 4.7445                 1.2473
 Frc consts  --      0.6255                 2.0756                 0.5647
 IR Inten    --     44.7662                11.5782                 0.0036

                     31                     32                     33
                      A                      A                      A
 Frequencies --    882.0166               958.9789               978.7350
 Red. masses --      3.3724                 1.3789                 2.9903
 Frc consts  --      1.5458                 0.7471                 1.6877
 IR Inten    --     22.3708                 2.9784                 4.7806

                     34                     35                     36
                      A                      A                      A
 Frequencies --   1002.2591              1003.1137              1020.4147
 Red. masses --      2.1426                 1.3582                 5.9735
 Frc consts  --      1.2681                 0.8052                 3.6646
 IR Inten    --      6.6985                 0.0225                 1.6960

                     37                     38                     39
                      A                      A                      A
 Frequencies --   1030.4265              1049.5620              1066.6324
 Red. masses --      1.2896                 4.1802                 2.2352
 Frc consts  --      0.8067                 2.7131                 1.4983
 IR Inten    --      0.0158                24.1981                 1.3821

                     40                     41                     42
                      A                      A                      A
 Frequencies --   1096.8795              1118.6639              1124.5129
 Red. masses --      3.1127                 1.4961                 2.4286
 Frc consts  --      2.2065                 1.1031                 1.8094
 IR Inten    --     64.2564                 4.7743               320.1212

                     43                     44                     45
                      A                      A                      A
 Frequencies --   1188.2734              1194.6701              1205.0181
 Red. masses --      1.1172                 1.2828                 1.2450
 Frc consts  --      0.9295                 1.0787                 1.0651
 IR Inten    --      0.3120                 1.9237                16.3806

                     46                     47                     48
                      A                      A                      A
 Frequencies --   1209.9866              1228.9716              1262.0466
 Red. masses --      1.1265                 1.5028                 1.4486
 Frc consts  --      0.9717                 1.3373                 1.3594
 IR Inten    --      1.8636                10.8846                31.3476

                     49                     50                     51
                      A                      A                      A
 Frequencies --   1288.8838              1311.8134              1331.2454
 Red. masses --      2.5806                 3.0411                 3.2735
 Frc consts  --      2.5258                 3.0833                 3.4180
 IR Inten    --    414.3904                23.7227                 1.1311

                     52                     53                     54
                      A                      A                      A
 Frequencies --   1359.7672              1407.0580              1431.2056
 Red. masses --      1.6677                 1.9761                 2.0767
 Frc consts  --      1.8168                 2.3050                 2.5062
 IR Inten    --      2.0725               205.3592                91.1805

                     55                     56                     57
                      A                      A                      A
 Frequencies --   1464.2391              1480.9204              1499.8432
 Red. masses --      1.0928                 1.0963                 2.3356
 Frc consts  --      1.3805                 1.4166                 3.0955
 IR Inten    --     20.0690                17.3385                 9.9324

                     58                     59                     60
                      A                      A                      A
 Frequencies --   1506.3292              1516.5432              1525.6559
 Red. masses --      1.3236                 1.0445                 1.0460
 Frc consts  --      1.7694                 1.4154                 1.4344
 IR Inten    --     46.5314                 8.0939                10.0425

                     61                     62                     63
                      A                      A                      A
 Frequencies --   1553.5573              1663.5485              1691.5701
 Red. masses --      2.4710                 5.8478                 5.9749
 Frc consts  --      3.5138                 9.5348                10.0730
 IR Inten    --     30.1734                 0.6857                 1.2145

                     64                     65                     66
                      A                      A                      A
 Frequencies --   1827.5874              1874.3732              2362.9248
 Red. masses --     12.0663                11.4266                11.9939
 Frc consts  --     23.7454                23.6526                39.4559
 IR Inten    --    411.1534               243.2421               451.1260

                     67                     68                     69
                      A                      A                      A
 Frequencies --   3099.7580              3109.4142              3111.7863
 Red. masses --      1.0619                 1.0315                 1.0639
 Frc consts  --      6.0117                 5.8760                 6.0699
 IR Inten    --     18.5067                27.8164                 5.0894

                     70                     71                     72
                      A                      A                      A
 Frequencies --   3144.2172              3170.4167              3188.9188
 Red. masses --      1.1016                 1.0990                 1.1075
 Frc consts  --      6.4164                 6.5085                 6.6354
 IR Inten    --      1.4621                 2.3358                20.3892

                     73                     74                     75
                      A                      A                      A
 Frequencies --   3223.8842              3227.1975              3235.9374
 Red. masses --      1.1070                 1.0862                 1.0892
 Frc consts  --      6.7789                 6.6651                 6.7197
 IR Inten    --     17.7678                 0.1218                 2.6303

                     76                     77                     78
                      A                      A                      A
 Frequencies --   3242.2383              3249.4156              3253.7676
 Red. masses --      1.0928                 1.0960                 1.0989
 Frc consts  --      6.7684                 6.8182                 6.8547
 IR Inten    --     11.1914                13.8640                 9.6850

 - Thermochemistry -
 -------------------
 Temperature   298.150 Kelvin.  Pressure   1.00000 Atm.
 Atom     1 has atomic number  6 and mass  12.00000

 Molecular mass:   216.07864 amu.
 Principal axes and moments of inertia in atomic units:
                           1         2         3
     Eigenvalues --   944.40378********************
           X            1.00000  -0.00080  -0.00040
           Y            0.00082   0.99870   0.05095
           Z            0.00035  -0.05095   0.99870
 This molecule is an asymmetric top.
 Rotational symmetry number  1.
 Warning -- assumption of classical behavior for rotation
           may cause significant error
 Rotational temperatures (Kelvin)      0.09171     0.00750     0.00734
 Rotational constants (GHZ):           1.91098     0.15630     0.15301
 Zero-point vibrational energy     586076.7 (Joules/Mol)
                                  140.07570 (Kcal/Mol)
 Warning -- explicit consideration of  23 degrees of freedom as
           vibrations may cause significant error
 Vibrational temperatures:     25.28    29.56    40.25    72.42   107.16
          (Kelvin)            138.30   203.98   214.34   244.53   275.26
                              322.22   378.41   422.77   507.85   563.59
                              592.10   616.85   733.18   773.80   822.67
                              837.81   842.08   890.02   914.18   994.88
                             1018.22  1065.32  1130.59  1239.78  1261.17
                             1269.03  1379.76  1408.18  1442.03  1443.26
                             1468.15  1482.55  1510.09  1534.65  1578.16
                             1609.51  1617.92  1709.66  1718.86  1733.75
                             1740.90  1768.22  1815.80  1854.42  1887.41
                             1915.37  1956.40  2024.44  2059.19  2106.71
                             2130.71  2157.94  2167.27  2181.97  2195.08
                             2235.22  2393.48  2433.79  2629.49  2696.80
                             3399.72  4459.86  4473.75  4477.17  4523.83
                             4561.52  4588.14  4638.45  4643.22  4655.79
                             4664.86  4675.18  4681.45

 Zero-point correction=                           0.223225 (Hartree/Particle)
 Thermal correction to Energy=                    0.238615
 Thermal correction to Enthalpy=                  0.239559
 Thermal correction to Gibbs Free Energy=         0.176606
 Sum of electronic and zero-point Energies=           -727.705438
 Sum of electronic and thermal Energies=              -727.690047
 Sum of electronic and thermal Enthalpies=            -727.689103
 Sum of electronic and thermal Free Energies=         -727.752057

                     E (Thermal)             CV                S
                      KCal/Mol        Cal/Mol-Kelvin    Cal/Mol-Kelvin
 Total                  149.733             55.053            132.498
 Electronic               0.000              0.000              0.000
 Translational            0.889              2.981             42.015
 Rotational               0.889              2.981             33.219
 Vibrational            147.956             49.091             57.264
 Vibration     1          0.593              1.986              6.891
 Vibration     2          0.593              1.986              6.581
 Vibration     3          0.593              1.984              5.968
 Vibration     4          0.595              1.977              4.804
 Vibration     5          0.599              1.966              4.031
 Vibration     6          0.603              1.952              3.531
 Vibration     7          0.615              1.911              2.780
 Vibration     8          0.618              1.904              2.685
 Vibration     9          0.625              1.879              2.436
 Vibration    10          0.634              1.852              2.215
 Vibration    11          0.649              1.805              1.927
 Vibration    12          0.670              1.741              1.642
 Vibration    13          0.689              1.685              1.452
 Vibration    14          0.729              1.569              1.153
 Vibration    15          0.759              1.488              0.994
 Vibration    16          0.775              1.445              0.921
 Vibration    17          0.790              1.408              0.863
 Vibration    18          0.865              1.229              0.635
 Vibration    19          0.893              1.166              0.570
 Vibration    20          0.928              1.092              0.501
 Vibration    21          0.939              1.070              0.481
 Vibration    22          0.942              1.063              0.476
 Vibration    23          0.978              0.993              0.419

 Optimization completed.
    -- Stationary point found.

 1\1\GINC-NODE-005\Freq\RM062X\6-31G(d)\C13H12O3\JP2658\14-Dec-2023\0\\
 #N Geom=AllCheck Guess=TCheck SCRF=Check GenChk RM062X/6-31G(d) Freq\\
 Structure506\\0,1\C,1.2208371722,-0.7965597244,0.0756461513\C,0.734365
 7821,-0.4763654971,-1.1910299545\C,-0.5148031724,0.1158596788,-1.32835
 53583\C,-1.2869367323,0.3915272578,-0.1905566975\C,-0.7935909789,0.068
 0519838,1.0819089553\C,0.456745015,-0.5239235804,1.2094984892\H,2.1973
 042788,-1.259037618,0.1793786348\H,1.3301246135,-0.6884622683,-2.07285
 94787\H,-0.9034303251,0.3702021025,-2.3089348064\C,-2.5752584121,1.000

 Normal termination of Gaussian 16 at Thu Dec 14 18:38:05 2023.
