 Gaussian 16, Revision C.01,
 Gaussian 16:  ES64L-G16RevC.01  3-Jul-2019

 ----------------------------------------------------------------------
 # m062x 6-31g(d) scrf=(iefpcm,solvent=benzene) opt=(calcfc,maxcycles=5
 0,maxstep=10) freq=noraman
 ----------------------------------------------------------------------

 ----------
 Structure2
 ----------
 Symbolic Z-matrix:
 Charge =  0 Multiplicity = 1

 SCF Done:  E(RM062X) =  -1875.76738203     A.U. after   13 cycles
 SCF Done:  E(RM062X) =  -1875.77421902     A.U. after   12 cycles
 SCF Done:  E(RM062X) =  -1875.77534455     A.U. after   12 cycles
 SCF Done:  E(RM062X) =  -1875.57132029     A.U. after   14 cycles
 SCF Done:  E(RM062X) =  -1875.76163931     A.U. after   13 cycles
 SCF Done:  E(RM062X) =  -1875.77534484     A.U. after    7 cycles
 SCF Done:  E(RM062X) =  -1875.77681895     A.U. after   12 cycles
 SCF Done:  E(RM062X) =  -1875.77567098     A.U. after   12 cycles
 SCF Done:  E(RM062X) =  -1875.76561945     A.U. after   13 cycles
 SCF Done:  E(RM062X) =  -1875.76845806     A.U. after   12 cycles
 SCF Done:  E(RM062X) =  -1875.78237837     A.U. after   10 cycles
 SCF Done:  E(RM062X) =  -1875.78238426     A.U. after    8 cycles
 SCF Done:  E(RM062X) =  -1875.78238483     A.U. after    9 cycles
 SCF Done:  E(RM062X) =  -1875.78238687     A.U. after    8 cycles
 SCF Done:  E(RM062X) =  -1875.78238644     A.U. after    8 cycles
 SCF Done:  E(RM062X) =  -1875.78238672     A.U. after    8 cycles
 SCF Done:  E(RM062X) =  -1875.78238671     A.U. after    7 cycles
 SCF Done:  E(RM062X) =  -1875.78238672     A.U. after    6 cycles
 SCF Done:  E(RM062X) =  -1875.78238670     A.U. after    6 cycles
 Optimization completed.
    -- Stationary point found.
 Normal termination of Gaussian 16 at Thu Dec 14 19:47:01 2023.

 --------------------------------------------------------------------
 #N Geom=AllCheck Guess=TCheck SCRF=Check GenChk RM062X/6-31G(d) Freq
 --------------------------------------------------------------------

 Structure from the checkpoint file:  "ricci_OPLS3e_1_opt_hess.chk"
 ----------
 Structure2
 ----------
 Charge =  0 Multiplicity = 1

                         Standard orientation:
 ---------------------------------------------------------------------
 Center     Atomic      Atomic             Coordinates (Angstroms)
 Number     Number       Type             X           Y           Z
 ---------------------------------------------------------------------
      1          6           0       -2.961905    1.003850   -0.019896
      2          6           0       -3.130570    0.191353   -1.347054
      3          6           0       -2.974363   -1.282498   -0.940797
      4          7           0       -1.571306    1.387344    0.186287
      5          1           0       -3.554628    1.920669   -0.023371
      6          1           0       -4.157196    0.361768   -1.699442
      7          8           0       -2.194267    0.510909   -2.346540
      8          1           0       -1.923183   -1.582981   -1.043396
      9          1           0       -3.565896   -1.952137   -1.570474
     10          6           0       -3.390436    0.008700    1.030685
     11          6           0       -3.397347   -1.286688    0.507669
     12          6           0       -3.750968   -2.361659    1.316970
     13          6           0       -4.087808   -2.121986    2.648552
     14          6           0       -4.072258   -0.825844    3.168603
     15          6           0       -3.720798    0.252796    2.359226
     16          1           0       -3.765572   -3.372285    0.918972
     17          1           0       -4.368535   -2.952592    3.288916
     18          1           0       -4.340979   -0.658372    4.206761
     19          1           0       -3.709950    1.264871    2.754343
     20          1           0       -2.283668    1.457894   -2.553731
     21          1           0       -0.981590    0.709185    0.657432
     22          6           0       -0.980829    2.418721   -0.436610
     23         16           0       -1.817442    3.662471   -1.214091
     24          7           0        0.386699    2.440410   -0.381376
     25          1           0        0.801724    3.299506   -0.722124
     26          6           0        2.936051   -0.906258   -0.137150
     27          6           0        1.742685   -0.977695   -0.846928
     28          6           0        0.890702    0.116481   -0.944717
     29          6           0        1.223723    1.302800   -0.283798
     30          6           0        2.416964    1.390690    0.432305
     31          6           0        3.266366    0.291107    0.488165
     32          1           0        3.601201   -1.760158   -0.084325
     33          6           0        1.331954   -2.255773   -1.525594
     34          1           0       -0.017675    0.066424   -1.545600
     35          1           0        2.677901    2.315217    0.938171
     36          6           0        4.528355    0.390361    1.301027
     37          9           0        0.320976   -2.847895   -0.864593
     38          9           0        0.899708   -2.032954   -2.772058
     39          9           0        2.335763   -3.137319   -1.588409
     40          9           0        4.288899    0.172223    2.602554
     41          9           0        5.442433   -0.505490    0.909817
     42          9           0        5.078486    1.608232    1.203501
 ---------------------------------------------------------------------

 SCF Done:  E(RM062X) =  -1875.78238670     A.U. after    1 cycles

 The electronic state is 1-A.
 Alpha  occ. eigenvalues --  -89.87409 -25.29808 -25.29692 -25.29540 -25.29301
 Alpha  occ. eigenvalues --  -25.29274 -25.29055 -19.64746 -14.81878 -14.81444
 Alpha  occ. eigenvalues --  -10.81316 -10.81288 -10.68530 -10.63386 -10.60876
 Alpha  occ. eigenvalues --  -10.60219 -10.60168 -10.59949 -10.59478 -10.59419
 Alpha  occ. eigenvalues --  -10.59121 -10.56459 -10.56242 -10.56110 -10.55958
 Alpha  occ. eigenvalues --  -10.55778 -10.55758 -10.55373  -8.22127  -6.14257
 Alpha  occ. eigenvalues --   -6.13807  -6.13599  -1.46694  -1.46678  -1.37512
 Alpha  occ. eigenvalues --   -1.37505  -1.37017  -1.36984  -1.15638  -1.12637
 Alpha  occ. eigenvalues --   -1.05234  -1.00560  -0.98060  -0.92398  -0.91636
 Alpha  occ. eigenvalues --   -0.89694  -0.86273  -0.82802  -0.81910  -0.81607
 Alpha  occ. eigenvalues --   -0.81099  -0.79889  -0.74591  -0.74091  -0.71223
 Alpha  occ. eigenvalues --   -0.70231  -0.69645  -0.69265  -0.69041  -0.68977
 Alpha  occ. eigenvalues --   -0.68338  -0.67181  -0.66214  -0.64007  -0.62477
 Alpha  occ. eigenvalues --   -0.60736  -0.60321  -0.59242  -0.58394  -0.57881
 Alpha  occ. eigenvalues --   -0.56977  -0.56932  -0.56832  -0.56475  -0.55745
 Alpha  occ. eigenvalues --   -0.53382  -0.53066  -0.52840  -0.52707  -0.52322
 Alpha  occ. eigenvalues --   -0.52034  -0.51630  -0.50868  -0.50835  -0.49871
 Alpha  occ. eigenvalues --   -0.49557  -0.49067  -0.48302  -0.48174  -0.47644
 Alpha  occ. eigenvalues --   -0.46508  -0.45679  -0.45427  -0.43939  -0.43290
 Alpha  occ. eigenvalues --   -0.42707  -0.41723  -0.39937  -0.39456  -0.37547
 Alpha  occ. eigenvalues --   -0.35425  -0.34882  -0.31356  -0.30933  -0.30208
 Alpha  occ. eigenvalues --   -0.28178  -0.27539
 Alpha virt. eigenvalues --   -0.02317  -0.01870   0.01689   0.02380   0.03361
 Alpha virt. eigenvalues --    0.10462   0.12173   0.13341   0.13644   0.14432
 Alpha virt. eigenvalues --    0.15469   0.15968   0.16142   0.17151   0.17985

 Mulliken charges:
               1
     1  C   -0.103625
     2  C    0.126793
     3  C   -0.382346
     4  N   -0.582482
     5  H    0.222920
     6  H    0.171999
     7  O   -0.666199
     8  H    0.181894
     9  H    0.193774
    10  C    0.028003
    11  C    0.083355
    12  C   -0.211140
    13  C   -0.168449
    14  C   -0.179619
    15  C   -0.188046
    16  H    0.176948
    17  H    0.176985
    18  H    0.177035
    19  H    0.183628
    20  H    0.438215
    21  H    0.376913
    22  C    0.359276
    23  S   -0.348109
    24  N   -0.702202
    25  H    0.399570
    26  C   -0.179957
    27  C   -0.096266
    28  C   -0.182326
    29  C    0.215840
    30  C   -0.172678
    31  C   -0.091084
    32  H    0.224137
    33  C    0.844904
    34  H    0.249594
    35  H    0.217561
    36  C    0.838296
    37  F   -0.270861
    38  F   -0.269812
    39  F   -0.274370
    40  F   -0.267424
    41  F   -0.274585
    42  F   -0.276063
 Sum of Mulliken charges =  -0.00000

 Dipole moment (field-independent basis, Debye):
    X=             -0.2097    Y=             -2.0843    Z=              2.4544  Tot=              3.2268
 Quadrupole moment (field-independent basis, Debye-Ang):
   XX=           -163.9936   YY=           -173.5247   ZZ=           -165.8740
   XY=             13.4270   XZ=             -9.0932   YZ=              1.2916

  Exact polarizability:     242.949      -8.667     276.862       6.162     -11.935     209.660
 Approx polarizability:     246.332     -14.068     315.168      12.221      -2.656     244.389

                      1                      2                      3
                      A                      A                      A
 Frequencies --     15.4912                17.8699                21.3008
 Red. masses --     11.9635                13.4301                12.9795
 Frc consts  --      0.0017                 0.0025                 0.0035
 IR Inten    --      0.3666                 0.0948                 0.1116

                      4                      5                      6
                      A                      A                      A
 Frequencies --     26.2446                56.2202                64.3417
 Red. masses --      7.2957                 8.1275                 5.7201
 Frc consts  --      0.0030                 0.0151                 0.0140
 IR Inten    --      0.9180                 2.0305                 2.3096

                      7                      8                      9
                      A                      A                      A
 Frequencies --     71.6141                92.5487                97.5973
 Red. masses --      8.2057                 6.6274                 7.6073
 Frc consts  --      0.0248                 0.0334                 0.0427
 IR Inten    --      2.0407                 1.8738                 2.4036

                     10                     11                     12
                      A                      A                      A
 Frequencies --    113.2406               118.7736               153.2646
 Red. masses --     14.3077                 7.1102                 7.6465
 Frc consts  --      0.1081                 0.0591                 0.1058
 IR Inten    --      1.1955                 2.8140                 0.4115

                     13                     14                     15
                      A                      A                      A
 Frequencies --    163.3090               189.8412               207.7448
 Red. masses --      6.7220                 7.3162                 5.3957
 Frc consts  --      0.1056                 0.1554                 0.1372
 IR Inten    --      6.1453                 5.6976                 4.5199

                     16                     17                     18
                      A                      A                      A
 Frequencies --    240.4153               261.7910               285.7987
 Red. masses --      3.6149                12.4147                10.9932
 Frc consts  --      0.1231                 0.5013                 0.5290
 IR Inten    --      0.7270                 1.9727                 2.9876

                     19                     20                     21
                      A                      A                      A
 Frequencies --    293.7711               306.2730               316.9560
 Red. masses --      5.0275                 6.3465                 5.6811
 Frc consts  --      0.2556                 0.3508                 0.3363
 IR Inten    --      6.0184                 3.8529                 2.5210

                     22                     23                     24
                      A                      A                      A
 Frequencies --    325.1096               345.5208               360.6207
 Red. masses --      5.9193                 5.9342                 9.5943
 Frc consts  --      0.3686                 0.4174                 0.7351
 IR Inten    --      9.3876                 9.7220                 4.6717

                     25                     26                     27
                      A                      A                      A
 Frequencies --    399.1079               413.4052               436.6244
 Red. masses --      6.3271                 8.8294                 4.6727
 Frc consts  --      0.5938                 0.8891                 0.5248
 IR Inten    --      5.2849                 6.4823                 5.5192

                     28                     29                     30
                      A                      A                      A
 Frequencies --    453.9375               458.8720               471.4699
 Red. masses --      4.1459                 2.3653                 3.7957
 Frc consts  --      0.5033                 0.2934                 0.4971
 IR Inten    --      7.9554                14.2815                59.1971

                     31                     32                     33
                      A                      A                      A
 Frequencies --    494.6345               500.4861               510.2737
 Red. masses --      1.4839                 1.2476                11.9060
 Frc consts  --      0.2139                 0.1841                 1.8265
 IR Inten    --     55.8061               300.9791                 0.1996

                     34                     35                     36
                      A                      A                      A
 Frequencies --    519.6894               534.9089               546.4675
 Red. masses --      5.9627                 5.3828                 3.5684
 Frc consts  --      0.9488                 0.9074                 0.6278
 IR Inten    --     26.6505                 5.9325                 5.0224

                     37                     38                     39
                      A                      A                      A
 Frequencies --    572.6367               579.6165               599.5644
 Red. masses --      1.2952                10.6403                 6.3772
 Frc consts  --      0.2502                 2.1061                 1.3507
 IR Inten    --     66.7526                 1.2293                16.4530

                     40                     41                     42
                      A                      A                      A
 Frequencies --    613.7344               625.7063               641.7165
 Red. masses --      5.8077                 7.6410                 5.6045
 Frc consts  --      1.2889                 1.7626                 1.3598
 IR Inten    --     16.3281                 0.5985                 1.6904

                     43                     44                     45
                      A                      A                      A
 Frequencies --    662.2869               675.0770               690.5924
 Red. masses --      6.1572                 6.6030                 9.9030
 Frc consts  --      1.5912                 1.7729                 2.7827
 IR Inten    --     19.5107                16.7901                46.0004

                     46                     47                     48
                      A                      A                      A
 Frequencies --    694.3411               704.0588               730.5716
 Red. masses --      9.5296                 3.3512                 2.7758
 Frc consts  --      2.7069                 0.9787                 0.8729
 IR Inten    --     17.2619                27.0576                14.3765

                     49                     50                     51
                      A                      A                      A
 Frequencies --    747.4880               755.8730               779.3308
 Red. masses --      4.8736                 6.8642                 1.3167
 Frc consts  --      1.6044                 2.3107                 0.4712
 IR Inten    --      1.1404                13.4164                42.1288

                     52                     53                     54
                      A                      A                      A
 Frequencies --    824.6505               852.4424               879.1928
 Red. masses --      3.3900                 4.1901                 4.9708
 Frc consts  --      1.3583                 1.7939                 2.2638
 IR Inten    --      5.4345                 8.2117                12.0266

                     55                     56                     57
                      A                      A                      A
 Frequencies --    892.8674               901.0973               912.7673
 Red. masses --      3.3191                 4.0465                 1.6205
 Frc consts  --      1.5590                 1.9358                 0.7955
 IR Inten    --     10.3884                 6.4512                 4.0749

                     58                     59                     60
                      A                      A                      A
 Frequencies --    930.5345               946.7461               972.4713
 Red. masses --      1.6278                 1.4031                 1.4783
 Frc consts  --      0.8305                 0.7410                 0.8237
 IR Inten    --     45.8844                 3.7426                 2.7809

                     61                     62                     63
                      A                      A                      A
 Frequencies --    986.9867               995.7350              1008.7626
 Red. masses --      5.6794                 1.5331                 1.5012
 Frc consts  --      3.2597                 0.8956                 0.9000
 IR Inten    --     24.9121                 8.0546                13.9387

                     64                     65                     66
                      A                      A                      A
 Frequencies --   1019.2271              1020.5839              1055.5424
 Red. masses --      1.2990                 5.7924                 2.6413
 Frc consts  --      0.7950                 3.5548                 1.7339
 IR Inten    --      0.1204                 0.2547                27.0454

                     67                     68                     69
                      A                      A                      A
 Frequencies --   1065.4202              1122.4597              1140.8500
 Red. masses --      2.0973                 2.0778                 1.8575
 Frc consts  --      1.4026                 1.5424                 1.4244
 IR Inten    --      0.5468                 5.0334                20.8255

                     70                     71                     72
                      A                      A                      A
 Frequencies --   1150.6510              1157.7109              1169.8642
 Red. masses --      1.8769                 1.7236                 2.6729
 Frc consts  --      1.4642                 1.3611                 2.1553
 IR Inten    --     37.2207                28.8518                45.1987

                     73                     74                     75
                      A                      A                      A
 Frequencies --   1184.3464              1188.6172              1213.3917
 Red. masses --      1.1492                 1.8152                 2.2257
 Frc consts  --      0.9498                 1.5110                 1.9307
 IR Inten    --      6.1208                 2.3895                15.9582

                     76                     77                     78
                      A                      A                      A
 Frequencies --   1223.7332              1239.5481              1247.4491
 Red. masses --      1.8527                 2.2432                10.5202
 Frc consts  --      1.6346                 2.0307                 9.6454
 IR Inten    --    183.6213               164.4424               208.8777

                     79                     80                     81
                      A                      A                      A
 Frequencies --   1254.3532              1257.8981              1265.0688
 Red. masses --      1.6309                 7.3831                 2.7300
 Frc consts  --      1.5119                 6.8831                 2.5742
 IR Inten    --     14.3614               281.5127               149.7384

                     82                     83                     84
                      A                      A                      A
 Frequencies --   1280.0763              1286.0476              1299.9664
 Red. masses --      3.4458                 7.8187                 2.0327
 Frc consts  --      3.3267                 7.6190                 2.0239
 IR Inten    --    172.1690               250.8188                41.6207

                     85                     86                     87
                      A                      A                      A
 Frequencies --   1313.7167              1319.6373              1332.4056
 Red. masses --      1.6226                 1.8035                 3.4154
 Frc consts  --      1.6499                 1.8504                 3.5725
 IR Inten    --     35.3484               154.5571               524.8100

                     88                     89                     90
                      A                      A                      A
 Frequencies --   1334.5210              1351.3372              1367.7414
 Red. masses --      1.4805                 1.4767                 1.7047
 Frc consts  --      1.5535                 1.5889                 1.8789
 IR Inten    --      6.6074               103.0646                22.2760

                     91                     92                     93
                      A                      A                      A
 Frequencies --   1370.7169              1372.7767              1423.6287
 Red. masses --      3.1962                 2.6633                 2.1320
 Frc consts  --      3.5381                 2.9571                 2.5458
 IR Inten    --     26.6743                11.6444                41.9508

                     94                     95                     96
                      A                      A                      A
 Frequencies --   1440.4362              1452.5760              1512.2080
 Red. masses --      6.2386                 1.5824                 1.2013
 Frc consts  --      7.6265                 1.9672                 1.6185
 IR Inten    --    440.5377                 9.7035                 3.7170

                     97                     98                     99
                      A                      A                      A
 Frequencies --   1517.2408              1522.2014              1532.7046
 Red. masses --      2.6751                 2.5173                 4.1368
 Frc consts  --      3.6283                 3.4367                 5.7258
 IR Inten    --    205.1949                17.0711                11.2212

                    100                    101                    102
                      A                      A                      A
 Frequencies --   1542.9005              1557.1244              1577.7870
 Red. masses --      2.8085                 2.5461                 2.4755
 Frc consts  --      3.9392                 3.6372                 3.6309
 IR Inten    --     16.8187               429.6984               656.9369

                    103                    104                    105
                      A                      A                      A
 Frequencies --   1677.5781              1702.1253              1703.5255
 Red. masses --      6.8405                 6.9175                 6.4390
 Frc consts  --     11.3424                11.8081                11.0095
 IR Inten    --      1.1296                 4.9584                14.6941

                    106                    107                    108
                      A                      A                      A
 Frequencies --   1708.4368              3066.1004              3086.9226
 Red. masses --      6.7692                 1.0856                 1.0659
 Frc consts  --     11.6409                 6.0129                 5.9846
 IR Inten    --      9.8950                49.2357                12.9138

                    109                    110                    111
                      A                      A                      A
 Frequencies --   3150.0618              3151.9598              3197.0280
 Red. masses --      1.0943                 1.0904                 1.0948
 Frc consts  --      6.3977                 6.3826                 6.5932
 IR Inten    --     12.0008                10.9670                38.9971

                    112                    113                    114
                      A                      A                      A
 Frequencies --   3220.3407              3225.2881              3234.8307
 Red. masses --      1.0868                 1.0902                 1.0940
 Frc consts  --      6.6403                 6.6817                 6.7450
 IR Inten    --      2.7328                 1.1842                18.8680

                    115                    116                    117
                      A                      A                      A
 Frequencies --   3244.3253              3246.5651              3269.4467
 Red. masses --      1.0927                 1.0978                 1.0924
 Frc consts  --      6.7764                 6.8176                 6.8798
 IR Inten    --      1.0768                20.1354                 4.3089

                    118                    119                    120
                      A                      A                      A
 Frequencies --   3596.2348              3623.8979              3732.6879
 Red. masses --      1.0769                 1.0774                 1.0661
 Frc consts  --      8.2061                 8.3362                 8.7520
 IR Inten    --     68.6660               109.7773                93.6124

 - Thermochemistry -
 -------------------
 Temperature   298.150 Kelvin.  Pressure   1.00000 Atm.
 Atom     1 has atomic number  6 and mass  12.00000

 Molecular mass:   420.07310 amu.
 Principal axes and moments of inertia in atomic units:
                           1         2         3
     Eigenvalues --  8718.50531********************
           X            0.99984   0.01015  -0.01461
           Y           -0.01098   0.99829  -0.05738
           Z            0.01401   0.05753   0.99825
 This molecule is an asymmetric top.
 Rotational symmetry number  1.
 Warning -- assumption of classical behavior for rotation
           may cause significant error
 Rotational temperatures (Kelvin)      0.00993     0.00500     0.00456
 Rotational constants (GHZ):           0.20700     0.10420     0.09503
 Zero-point vibrational energy     804992.3 (Joules/Mol)
                                  192.39778 (Kcal/Mol)
 Warning -- explicit consideration of  40 degrees of freedom as
           vibrations may cause significant error
 Vibrational temperatures:     22.29    25.71    30.65    37.76    80.89
          (Kelvin)             92.57   103.04   133.16   140.42   162.93
                              170.89   220.51   234.97   273.14   298.90
                              345.90   376.66   411.20   422.67   440.66
                              456.03   467.76   497.13   518.85   574.23
                              594.80   628.21   653.11   660.21   678.34
                              711.67   720.09   734.17   747.72   769.61
                              786.24   823.90   833.94   862.64   883.03
                              900.25   923.29   952.88   971.29   993.61
                              999.00  1012.98  1051.13  1075.47  1087.53
                             1121.28  1186.49  1226.47  1264.96  1284.64
                             1296.48  1313.27  1338.83  1362.16  1399.17
                             1420.05  1432.64  1451.38  1466.44  1468.39
                             1518.69  1532.90  1614.97  1641.43  1655.53
                             1665.69  1683.17  1704.01  1710.16  1745.80
                             1760.68  1783.43  1794.80  1804.73  1809.83
                             1820.15  1841.74  1850.34  1870.36  1890.15
                             1898.66  1917.03  1920.08  1944.27  1967.87
                             1972.16  1975.12  2048.28  2072.47  2089.93
                             2175.73  2182.97  2190.11  2205.22  2219.89
                             2240.35  2270.08  2413.66  2448.98  2450.99
                             2458.06  4411.43  4441.39  4532.24  4534.97
                             4599.81  4633.35  4640.47  4654.20  4667.86
                             4671.08  4704.00  5174.18  5213.98  5370.51

 Zero-point correction=                           0.306605 (Hartree/Particle)
 Thermal correction to Energy=                    0.330444
 Thermal correction to Enthalpy=                  0.331389
 Thermal correction to Gibbs Free Energy=         0.249509
 Sum of electronic and zero-point Energies=          -1875.475781
 Sum of electronic and thermal Energies=             -1875.451942
 Sum of electronic and thermal Enthalpies=           -1875.450998
 Sum of electronic and thermal Free Energies=        -1875.532878

                     E (Thermal)             CV                S
                      KCal/Mol        Cal/Mol-Kelvin    Cal/Mol-Kelvin
 Total                  207.357             91.197            172.331
 Electronic               0.000              0.000              0.000
 Translational            0.889              2.981             43.996
 Rotational               0.889              2.981             36.304
 Vibrational            205.580             85.235             92.031
 Vibration     1          0.593              1.986              7.142
 Vibration     2          0.593              1.986              6.858
 Vibration     3          0.593              1.985              6.509
 Vibration     4          0.593              1.985              6.095
 Vibration     5          0.596              1.975              4.586
 Vibration     6          0.597              1.971              4.319
 Vibration     7          0.598              1.968              4.108
 Vibration     8          0.602              1.955              3.605
 Vibration     9          0.603              1.951              3.502
 Vibration    10          0.607              1.938              3.213
 Vibration    11          0.609              1.934              3.120
 Vibration    12          0.619              1.899              2.631
 Vibration    13          0.623              1.887              2.511
 Vibration    14          0.633              1.854              2.229
 Vibration    15          0.641              1.829              2.063
 Vibration    16          0.657              1.779              1.800
 Vibration    17          0.669              1.743              1.650
 Vibration    18          0.684              1.700              1.499
 Vibration    19          0.689              1.685              1.452
 Vibration    20          0.697              1.662              1.382
 Vibration    21          0.704              1.641              1.326
 Vibration    22          0.709              1.625              1.284
 Vibration    23          0.724              1.584              1.187
 Vibration    24          0.735              1.553              1.119
 Vibration    25          0.765              1.472              0.966
 Vibration    26          0.777              1.441              0.915
 Vibration    27          0.797              1.390              0.837
 Vibration    28          0.812              1.352              0.784
 Vibration    29          0.817              1.341              0.769
 Vibration    30          0.828              1.313              0.733
 Vibration    31          0.850              1.262              0.672
 Vibration    32          0.856              1.249              0.657
 Vibration    33          0.865              1.227              0.633
 Vibration    34          0.875              1.206              0.611
 Vibration    35          0.890              1.173              0.576
 Vibration    36          0.902              1.147              0.552
 Vibration    37          0.929              1.090              0.499
 Vibration    38          0.936              1.075              0.486
 Vibration    39          0.958              1.033              0.450
 Vibration    40          0.973              1.003              0.427

 Optimization completed.
    -- Stationary point found.
 Normal termination of Gaussian 16 at Thu Dec 14 19:58:42 2023.
