 Gaussian 16, Revision C.01,
 Gaussian 16:  ES64L-G16RevC.01  3-Jul-2019

 ----------------------------------------------------------------------
 # m062x 6-31g(d) scrf=(iefpcm,solvent=benzene) opt=(calcfc,maxcycles=5
 0,maxstep=10) freq=noraman
 ----------------------------------------------------------------------

 ------------
 Structure901
 ------------
 Symbolic Z-matrix:
 Charge =  0 Multiplicity = 1

 SCF Done:  E(RM062X) =  -1901.67556405     A.U. after   14 cycles
 SCF Done:  E(RM062X) =  -1901.67401548     A.U. after   14 cycles
 SCF Done:  E(RM062X) =  -1901.68170166     A.U. after   11 cycles
 SCF Done:  E(RM062X) =  -1901.68613166     A.U. after   12 cycles
 SCF Done:  E(RM062X) =  -1901.67893090     A.U. after   14 cycles
 SCF Done:  E(RM062X) =  -1901.68205661     A.U. after   12 cycles
 SCF Done:  E(RM062X) =  -1901.68635199     A.U. after   10 cycles
 SCF Done:  E(RM062X) =  -1901.68662218     A.U. after   11 cycles
 SCF Done:  E(RM062X) =  -1901.68745676     A.U. after   11 cycles
 SCF Done:  E(RM062X) =  -1901.68758940     A.U. after   11 cycles
 SCF Done:  E(RM062X) =  -1901.68786751     A.U. after    8 cycles
 SCF Done:  E(RM062X) =  -1901.68787042     A.U. after    9 cycles
 SCF Done:  E(RM062X) =  -1901.68787227     A.U. after    8 cycles
 SCF Done:  E(RM062X) =  -1901.68786956     A.U. after    9 cycles
 SCF Done:  E(RM062X) =  -1901.68787214     A.U. after    8 cycles
 SCF Done:  E(RM062X) =  -1901.68786818     A.U. after    9 cycles
 SCF Done:  E(RM062X) =  -1901.68787216     A.U. after    9 cycles
 SCF Done:  E(RM062X) =  -1901.68787226     A.U. after    7 cycles
 SCF Done:  E(RM062X) =  -1901.68787227     A.U. after    6 cycles
 Optimization completed.
    -- Stationary point found.
 Normal termination of Gaussian 16 at Thu Dec 14 20:40:38 2023.

 --------------------------------------------------------------------
 #N Geom=AllCheck Guess=TCheck SCRF=Check GenChk RM062X/6-31G(d) Freq
 --------------------------------------------------------------------

 Structure from the checkpoint file:  "sulphon_OPLS3e_1_opt_hess.chk"
 ------------
 Structure901
 ------------
 Charge =  0 Multiplicity = 1

                         Standard orientation:
 ---------------------------------------------------------------------
 Center     Atomic      Atomic             Coordinates (Angstroms)
 Number     Number       Type             X           Y           Z
 ---------------------------------------------------------------------
      1          6           0        2.001070   -2.092743    0.746215
      2          6           0        2.332143   -0.841572    1.266173
      3          6           0        1.783544   -0.407721    2.474150
      4          6           0        0.894609   -1.227024    3.161701
      5          6           0        0.538856   -2.466996    2.636350
      6          6           0        1.094535   -2.895666    1.433001
      7          1           0        2.438863   -2.409715   -0.193703
      8          7           0        3.201623    0.015605    0.518504
      9          1           0        2.037099    0.576940    2.858376
     10          1           0        0.459287   -0.884148    4.094340
     11          1           0       -0.171947   -3.095039    3.162987
     12          1           0        0.829445   -3.867059    1.027717
     13          1           0        3.670659    0.732053    1.070689
     14         16           0        2.590416    0.705861   -0.881667
     15          8           0        2.174953   -0.379898   -1.750106
     16          8           0        3.582782    1.684624   -1.294356
     17          6           0       -1.148160    2.973559    0.400463
     18          6           0       -1.127230    1.581007    0.398782
     19          6           0       -0.001972    0.862163    0.002651
     20          6           0        1.120116    1.588218   -0.389097
     21          6           0        1.134334    2.980894   -0.383694
     22          6           0       -0.008619    3.672289    0.009850
     23          1           0       -2.047692    3.491734    0.716045
     24          1           0        0.000104   -0.224899   -0.000447
     25          1           0        2.031657    3.504836   -0.695945
     26          1           0       -0.011133    4.756727    0.012418
     27         16           0       -2.591717    0.688637    0.890604
     28          8           0       -3.587677    1.660278    1.311494
     29          7           0       -3.204644    0.002093   -0.510896
     30          8           0       -2.167523   -0.399524    1.751874
     31          1           0       -3.681274    0.719297   -1.055484
     32          6           0       -0.527839   -2.436565   -2.662266
     33          6           0       -1.072543   -2.880540   -1.459461
     34          6           0       -1.983994   -2.092854   -0.761513
     35          6           0       -2.331187   -0.841310   -1.269773
     36          6           0       -1.794041   -0.392501   -2.477504
     37          6           0       -0.899990   -1.196641   -3.176094
     38          1           0        0.187315   -3.052504   -3.197191
     39          1           0       -0.794579   -3.851956   -1.062993
     40          1           0       -2.413167   -2.421737    0.178305
     41          1           0       -2.060926    0.591745   -2.853637
     42          1           0       -0.473805   -0.841944   -4.108565
 ---------------------------------------------------------------------

 SCF Done:  E(RM062X) =  -1901.68787227     A.U. after    1 cycles

 The electronic state is 1-A.
 Alpha  occ. eigenvalues --  -90.17149 -90.17148 -19.65082 -19.65077 -19.64923
 Alpha  occ. eigenvalues --  -19.64923 -14.81120 -14.81116 -10.60876 -10.60872
 Alpha  occ. eigenvalues --  -10.60498 -10.60491 -10.60082 -10.59438 -10.59434
 Alpha  occ. eigenvalues --  -10.58646 -10.56490 -10.56483 -10.56092 -10.56088
 Alpha  occ. eigenvalues --  -10.56063 -10.56058 -10.55946 -10.55940 -10.55752
 Alpha  occ. eigenvalues --  -10.55748  -8.48191  -8.48190  -6.40398  -6.40397
 Alpha  occ. eigenvalues --   -6.40350  -6.40349  -6.40263  -6.40262  -1.25378
 Alpha  occ. eigenvalues --   -1.25360  -1.13948  -1.13945  -1.06111  -1.06086
 Alpha  occ. eigenvalues --   -1.00552  -0.95978  -0.95911  -0.90308  -0.88932
 Alpha  occ. eigenvalues --   -0.85385  -0.85220  -0.84613  -0.84501  -0.77599
 Alpha  occ. eigenvalues --   -0.77241  -0.72358  -0.71247  -0.70720  -0.70555
 Alpha  occ. eigenvalues --   -0.69271  -0.66996  -0.64820  -0.62058  -0.61955
 Alpha  occ. eigenvalues --   -0.61275  -0.60804  -0.57748  -0.57514  -0.57328
 Alpha  occ. eigenvalues --   -0.57172  -0.56454  -0.53708  -0.53620  -0.52935
 Alpha  occ. eigenvalues --   -0.52812  -0.52697  -0.50990  -0.50894  -0.49801
 Alpha  occ. eigenvalues --   -0.49621  -0.48235  -0.47008  -0.46322  -0.45494
 Alpha  occ. eigenvalues --   -0.45479  -0.43808  -0.43697  -0.42255  -0.42067
 Alpha  occ. eigenvalues --   -0.41777  -0.41583  -0.41120  -0.40819  -0.40010
 Alpha  occ. eigenvalues --   -0.39285  -0.39193  -0.38291  -0.38021  -0.37822
 Alpha  occ. eigenvalues --   -0.34292  -0.34030  -0.31958  -0.30687  -0.29765
 Alpha  occ. eigenvalues --   -0.29348
 Alpha virt. eigenvalues --   -0.02537  -0.01717   0.01589   0.02216   0.02382
 Alpha virt. eigenvalues --    0.02489   0.09510   0.10839   0.11567   0.11770
 Alpha virt. eigenvalues --    0.12064   0.12899   0.13420   0.14292   0.15272

 Mulliken charges:
               1
     1  C   -0.141395
     2  C    0.171480
     3  C   -0.178744
     4  C   -0.163413
     5  C   -0.149294
     6  C   -0.181946
     7  H    0.201355
     8  N   -0.757495
     9  H    0.175724
    10  H    0.186114
    11  H    0.181706
    12  H    0.177016
    13  H    0.391766
    14  S    1.248044
    15  O   -0.556441
    16  O   -0.561303
    17  C   -0.153638
    18  C   -0.203481
    19  C   -0.105528
    20  C   -0.203529
    21  C   -0.153656
    22  C   -0.163508
    23  H    0.232045
    24  H    0.227284
    25  H    0.232064
    26  H    0.205861
    27  S    1.247752
    28  O   -0.561390
    29  N   -0.757135
    30  O   -0.556391
    31  H    0.391632
    32  C   -0.148765
    33  C   -0.181586
    34  C   -0.141938
    35  C    0.171573
    36  C   -0.178777
    37  C   -0.163934
    38  H    0.181799
    39  H    0.176911
    40  H    0.201418
    41  H    0.175684
    42  H    0.186060
 Sum of Mulliken charges =  -0.00000

 Dipole moment (field-independent basis, Debye):
    X=             -0.0165    Y=              1.7227    Z=             -0.0067  Tot=              1.7228
 Quadrupole moment (field-independent basis, Debye-Ang):
   XX=           -185.1417   YY=           -140.7368   ZZ=           -161.3947
   XY=             -0.2138   XZ=             21.6073   YZ=              0.1015

  Exact polarizability:     232.838      -0.125     290.128     -50.436       0.022     221.708
 Approx polarizability:     282.223      -0.141     347.606     -68.266       0.014     270.697

                      1                      2                      3
                      A                      A                      A
 Frequencies --     26.4637                31.9859                33.8369
 Red. masses --      5.3281                 5.4690                 5.9058
 Frc consts  --      0.0022                 0.0033                 0.0040
 IR Inten    --      0.5251                 4.3941                 1.2082

                      4                      5                      6
                      A                      A                      A
 Frequencies --     43.5146                62.8917                67.9426
 Red. masses --      5.7575                 4.5607                 5.0623
 Frc consts  --      0.0064                 0.0106                 0.0138
 IR Inten    --      0.1117                 0.5781                 0.2648

                      7                      8                      9
                      A                      A                      A
 Frequencies --     85.9474                97.2665               131.0163
 Red. masses --      7.2808                 5.5949                 5.3018
 Frc consts  --      0.0317                 0.0312                 0.0536
 IR Inten    --      1.1779                 1.5969                 2.3585

                     10                     11                     12
                      A                      A                      A
 Frequencies --    132.2753               133.1912               210.9883
 Red. masses --      5.6874                 7.6715                 8.8133
 Frc consts  --      0.0586                 0.0802                 0.2312
 IR Inten    --      2.4841                 4.1757                 3.4383

                     13                     14                     15
                      A                      A                      A
 Frequencies --    239.2146               253.3238               256.3730
 Red. masses --      4.5479                 5.1328                10.9955
 Frc consts  --      0.1533                 0.1941                 0.4258
 IR Inten    --      0.2186                 0.9104                 2.4943

                     16                     17                     18
                      A                      A                      A
 Frequencies --    276.9196               278.3794               298.2025
 Red. masses --      6.5320                 6.9290                 7.5416
 Frc consts  --      0.2951                 0.3164                 0.3951
 IR Inten    --      0.3709                 0.1386                 3.4605

                     19                     20                     21
                      A                      A                      A
 Frequencies --    305.0773               333.7556               369.6835
 Red. masses --      6.9284                 7.8541                 6.9636
 Frc consts  --      0.3799                 0.5155                 0.5607
 IR Inten    --      2.0399                 5.9048                 2.3966

                     22                     23                     24
                      A                      A                      A
 Frequencies --    390.7492               401.9952               423.4691
 Red. masses --      4.2758                 5.5012                 3.0633
 Frc consts  --      0.3846                 0.5238                 0.3237
 IR Inten    --     16.4518                 0.4980                 0.5740

                     25                     26                     27
                      A                      A                      A
 Frequencies --    427.2739               451.8148               470.6453
 Red. masses --      3.0729                 4.9258                 3.9102
 Frc consts  --      0.3305                 0.5924                 0.5103
 IR Inten    --      0.5281                 7.9649                13.1513

                     28                     29                     30
                      A                      A                      A
 Frequencies --    491.1279               500.6500               513.3613
 Red. masses --      4.6691                 3.5867                 4.2750
 Frc consts  --      0.6636                 0.5297                 0.6638
 IR Inten    --      0.0101                65.3460                 8.1742

                     31                     32                     33
                      A                      A                      A
 Frequencies --    539.6000               559.6046               563.3141
 Red. masses --      6.5436                 3.5360                 4.0162
 Frc consts  --      1.1226                 0.6524                 0.7509
 IR Inten    --    109.9424                 1.3297                26.3403

                     34                     35                     36
                      A                      A                      A
 Frequencies --    599.8475               604.2391               616.6944
 Red. masses --      7.2390                 4.8401                 5.7636
 Frc consts  --      1.5347                 1.0412                 1.2915
 IR Inten    --     23.3482               175.8631                11.9973

                     37                     38                     39
                      A                      A                      A
 Frequencies --    628.9504               629.7161               655.0159
 Red. masses --      5.7464                 5.8806                 3.6225
 Frc consts  --      1.3393                 1.3739                 0.9157
 IR Inten    --      2.3149                 0.0659                46.3291

                     40                     41                     42
                      A                      A                      A
 Frequencies --    660.4622               702.3470               704.0156
 Red. masses --      3.0601                 2.7549                 3.5759
 Frc consts  --      0.7865                 0.8007                 1.0442
 IR Inten    --    276.7547                35.4628                38.1156

                     43                     44                     45
                      A                      A                      A
 Frequencies --    715.0817               720.6229               773.7411
 Red. masses --      2.1078                 2.7092                 1.7496
 Frc consts  --      0.6350                 0.8289                 0.6171
 IR Inten    --    168.4106               100.5395                82.6778

                     46                     47                     48
                      A                      A                      A
 Frequencies --    777.8981               811.0356               832.3429
 Red. masses --      1.7050                 6.0714                 1.3926
 Frc consts  --      0.6079                 2.3530                 0.5684
 IR Inten    --     28.8085                96.8421                21.0150

                     49                     50                     51
                      A                      A                      A
 Frequencies --    856.5716               859.7661               862.7940
 Red. masses --      3.4863                 2.9908                 1.3934
 Frc consts  --      1.5071                 1.3026                 0.6111
 IR Inten    --      0.0099                10.6179                 3.1086

                     52                     53                     54
                      A                      A                      A
 Frequencies --    868.6713               907.5805               908.3505
 Red. masses --      1.2563                 2.9611                 2.7043
 Frc consts  --      0.5585                 1.4371                 1.3146
 IR Inten    --      0.6256                55.1324                85.1287

                     55                     56                     57
                      A                      A                      A
 Frequencies --    945.7051               946.5428               948.8229
 Red. masses --      1.4575                 1.4546                 1.4761
 Frc consts  --      0.7680                 0.7679                 0.7829
 IR Inten    --     12.6318                16.9665                26.8454

                     58                     59                     60
                      A                      A                      A
 Frequencies --    980.8018               992.9326               996.1928
 Red. masses --      1.3304                 1.3525                 1.3501
 Frc consts  --      0.7540                 0.7856                 0.7894
 IR Inten    --      0.5345                 0.5897                 1.3462

                     61                     62                     63
                      A                      A                      A
 Frequencies --   1012.9096              1016.1382              1020.1250
 Red. masses --      6.2216                 1.8046                 4.8463
 Frc consts  --      3.7609                 1.0978                 2.9715
 IR Inten    --      0.8847                 2.0174                 1.2827

                     64                     65                     66
                      A                      A                      A
 Frequencies --   1021.6409              1023.2828              1033.4575
 Red. masses --      2.5221                 1.3394                 1.3204
 Frc consts  --      1.5510                 0.8263                 0.8309
 IR Inten    --      1.4503                 0.3888                 0.1891

                     67                     68                     69
                      A                      A                      A
 Frequencies --   1068.6828              1069.2958              1119.8604
 Red. masses --      2.0565                 2.0648                 1.4662
 Frc consts  --      1.3838                 1.3910                 1.0834
 IR Inten    --      3.2884                 3.4995                 7.2997

                     70                     71                     72
                      A                      A                      A
 Frequencies --   1120.5114              1122.1087              1131.8443
 Red. masses --      1.4640                 2.0960                 1.8230
 Frc consts  --      1.0830                 1.5549                 1.3760
 IR Inten    --      5.7033                 0.1611                53.5306

                     73                     74                     75
                      A                      A                      A
 Frequencies --   1138.6673              1177.3120              1184.4415
 Red. masses --      3.6969                 7.5441                 1.1118
 Frc consts  --      2.8241                 6.1608                 0.9190
 IR Inten    --     32.9344               570.5086                 0.0036

                     76                     77                     78
                      A                      A                      A
 Frequencies --   1186.2576              1195.2491              1199.7443
 Red. masses --      1.1144                 1.1322                 6.4783
 Frc consts  --      0.9240                 0.9530                 5.4940
 IR Inten    --      0.2727                 4.5318                 3.8287

                     79                     80                     81
                      A                      A                      A
 Frequencies --   1204.8939              1206.7289              1260.7024
 Red. masses --      1.1422                 1.1148                 2.5250
 Frc consts  --      0.9770                 0.9565                 2.3645
 IR Inten    --      1.3361                 0.8610                 7.6155

                     82                     83                     84
                      A                      A                      A
 Frequencies --   1261.4630              1311.3164              1311.5914
 Red. masses --      2.5463                 2.3452                 2.2976
 Frc consts  --      2.3873                 2.3760                 2.3287
 IR Inten    --     20.9025                 5.8005                47.8475

                     85                     86                     87
                      A                      A                      A
 Frequencies --   1320.9418              1350.9707              1356.7104
 Red. masses --      1.5159                 4.3879                 2.7318
 Frc consts  --      1.5585                 4.7184                 2.9626
 IR Inten    --      0.9306                35.8981                12.0738

                     88                     89                     90
                      A                      A                      A
 Frequencies --   1358.1823              1376.8262              1379.4234
 Red. masses --      2.5602                 2.8948                 2.7464
 Frc consts  --      2.7826                 3.2332                 3.0790
 IR Inten    --      6.5922               102.2970                88.1099

                     91                     92                     93
                      A                      A                      A
 Frequencies --   1430.6628              1431.5687              1468.1412
 Red. masses --      1.9581                 1.9588                 3.0846
 Frc consts  --      2.3614                 2.3651                 3.9173
 IR Inten    --    177.1238                87.5747                64.1084

                     94                     95                     96
                      A                      A                      A
 Frequencies --   1520.9666              1522.9948              1523.8113
 Red. masses --      2.2886                 2.2575                 2.2665
 Frc consts  --      3.1193                 3.0852                 3.1007
 IR Inten    --      0.8764                32.8706                11.7583

                     97                     98                     99
                      A                      A                      A
 Frequencies --   1552.3750              1552.6679              1668.9549
 Red. masses --      2.4502                 2.4396                 6.1976
 Frc consts  --      3.4790                 3.4651                10.1710
 IR Inten    --     37.4829                59.4096                13.4268

                    100                    101                    102
                      A                      A                      A
 Frequencies --   1669.8487              1682.9982              1683.2873
 Red. masses --      6.7328                 6.1653                 6.1628
 Frc consts  --     11.0611                10.2890                10.2883
 IR Inten    --      2.7840                 7.1686                 2.4556

                    103                    104                    105
                      A                      A                      A
 Frequencies --   1691.4326              1691.5995              3217.4191
 Red. masses --      6.1149                 6.1209                 1.0902
 Frc consts  --     10.3074                10.3196                 6.6493
 IR Inten    --     12.3942                13.0498                 5.9897

                    106                    107                    108
                      A                      A                      A
 Frequencies --   3217.9324              3231.0643              3232.3241
 Red. masses --      1.0901                 1.0877                 1.0874
 Frc consts  --      6.6506                 6.6905                 6.6938
 IR Inten    --      6.5966                 2.3411                 1.1799

                    109                    110                    111
                      A                      A                      A
 Frequencies --   3236.2564              3242.1599              3242.8802
 Red. masses --      1.0936                 1.0922                 1.0923
 Frc consts  --      6.7486                 6.7640                 6.7678
 IR Inten    --      7.3132                 7.2089                16.4610

                    112                    113                    114
                      A                      A                      A
 Frequencies --   3246.3720              3253.5684              3253.9134
 Red. masses --      1.0881                 1.0967                 1.0969
 Frc consts  --      6.7563                 6.8398                 6.8427
 IR Inten    --      3.6657                14.6950                 3.0822

                    115                    116                    117
                      A                      A                      A
 Frequencies --   3255.2745              3260.3791              3260.6033
 Red. masses --      1.0921                 1.0959                 1.0960
 Frc consts  --      6.8183                 6.8636                 6.8654
 IR Inten    --      6.7514                 4.0942                 0.3110

                    118                    119                    120
                      A                      A                      A
 Frequencies --   3261.9313              3553.3484              3554.3275
 Red. masses --      1.0976                 1.0760                 1.0760
 Frc consts  --      6.8806                 8.0047                 8.0087
 IR Inten    --      1.4684                63.0939                55.4980

 - Thermochemistry -
 -------------------
 Temperature   298.150 Kelvin.  Pressure   1.00000 Atm.
 Atom     1 has atomic number  6 and mass  12.00000

 Molecular mass:   388.05515 amu.
 Principal axes and moments of inertia in atomic units:
                           1         2         3
     Eigenvalues --  7637.106649669.08111**********
           X            0.99970  -0.00055   0.02458
           Y            0.00055   1.00000   0.00026
           Z           -0.02458  -0.00025   0.99970
 This molecule is an asymmetric top.
 Rotational symmetry number  1.
 Warning -- assumption of classical behavior for rotation
           may cause significant error
 Rotational temperatures (Kelvin)      0.01134     0.00896     0.00824
 Rotational constants (GHZ):           0.23631     0.18665     0.17180
 Zero-point vibrational energy     843731.8 (Joules/Mol)
                                  201.65674 (Kcal/Mol)
 Warning -- explicit consideration of  36 degrees of freedom as
           vibrations may cause significant error
 Vibrational temperatures:     38.08    46.02    48.68    62.61    90.49
          (Kelvin)             97.75   123.66   139.94   188.50   190.31
                              191.63   303.57   344.18   364.48   368.86
                              398.43   400.53   429.05   438.94   480.20
                              531.89   562.20   578.38   609.28   614.75
                              650.06   677.15   706.62   720.32   738.61
                              776.36   805.15   810.48   863.05   869.37
                              887.29   904.92   906.02   942.42   950.26
                             1010.52  1012.92  1028.84  1036.82  1113.24
                             1119.22  1166.90  1197.56  1232.42  1237.01
                             1241.37  1249.82  1305.81  1306.91  1360.66
                             1361.86  1365.14  1411.16  1428.61  1433.30
                             1457.35  1462.00  1467.73  1469.91  1472.28
                             1486.91  1537.60  1538.48  1611.23  1612.17
                             1614.46  1628.47  1638.29  1693.89  1704.15
                             1706.76  1719.70  1726.16  1733.57  1736.21
                             1813.87  1814.96  1886.69  1887.09  1900.54
                             1943.75  1952.00  1954.12  1980.95  1984.68
                             2058.40  2059.71  2112.33  2188.33  2191.25
                             2192.42  2233.52  2233.94  2401.25  2402.54
                             2421.46  2421.87  2433.59  2433.83  4629.15
                             4629.89  4648.78  4650.59  4656.25  4664.75
                             4665.78  4670.81  4681.16  4681.66  4683.61
                             4690.96  4691.28  4693.19  5112.48  5113.88

 Zero-point correction=                           0.321360 (Hartree/Particle)
 Thermal correction to Energy=                    0.343218
 Thermal correction to Enthalpy=                  0.344162
 Thermal correction to Gibbs Free Energy=         0.269045
 Sum of electronic and zero-point Energies=          -1901.366512
 Sum of electronic and thermal Energies=             -1901.344655
 Sum of electronic and thermal Enthalpies=           -1901.343710
 Sum of electronic and thermal Free Energies=        -1901.418827

                     E (Thermal)             CV                S
                      KCal/Mol        Cal/Mol-Kelvin    Cal/Mol-Kelvin
 Total                  215.372             86.165            158.096
 Electronic               0.000              0.000              0.000
 Translational            0.889              2.981             43.760
 Rotational               0.889              2.981             35.005
 Vibrational            213.595             80.203             79.331
 Vibration     1          0.593              1.985              6.078
 Vibration     2          0.594              1.983              5.702
 Vibration     3          0.594              1.983              5.591
 Vibration     4          0.595              1.980              5.092
 Vibration     5          0.597              1.972              4.364
 Vibration     6          0.598              1.969              4.212
 Vibration     7          0.601              1.959              3.750
 Vibration     8          0.603              1.951              3.508
 Vibration     9          0.612              1.922              2.931
 Vibration    10          0.612              1.921              2.913
 Vibration    11          0.613              1.920              2.899
 Vibration    12          0.643              1.824              2.035
 Vibration    13          0.657              1.780              1.809
 Vibration    14          0.664              1.757              1.707
 Vibration    15          0.666              1.752              1.686
 Vibration    16          0.678              1.716              1.553
 Vibration    17          0.679              1.714              1.544
 Vibration    18          0.691              1.677              1.427
 Vibration    19          0.696              1.664              1.389
 Vibration    20          0.715              1.608              1.242
 Vibration    21          0.742              1.535              1.081
 Vibration    22          0.758              1.490              0.997
 Vibration    23          0.768              1.466              0.955
 Vibration    24          0.786              1.419              0.880
 Vibration    25          0.789              1.411              0.868
 Vibration    26          0.810              1.357              0.790
 Vibration    27          0.828              1.315              0.736
 Vibration    28          0.847              1.270              0.681
 Vibration    29          0.856              1.249              0.657
 Vibration    30          0.868              1.220              0.626
 Vibration    31          0.895              1.162              0.566
 Vibration    32          0.915              1.119              0.525
 Vibration    33          0.919              1.111              0.517
 Vibration    34          0.958              1.032              0.450
 Vibration    35          0.963              1.023              0.442
 Vibration    36          0.976              0.997              0.422

                           ! Non-Optimized Parameters !
 Normal termination of Gaussian 16 at Thu Dec 14 20:53:36 2023.
