 Gaussian 16, Revision C.01,
 Gaussian 16:  ES64L-G16RevC.01  3-Jul-2019

 -----------------------------------------------------------
 # wb97xd def2svp scrf=(iefpcm,solvent=toluene) freq=noraman
 -----------------------------------------------------------

 -----------------
 TS-68_opt_sqm.out
 -----------------
 Symbolic Z-matrix:
 Charge =  0 Multiplicity = 1

                         Standard orientation:
 ---------------------------------------------------------------------
 Center     Atomic      Atomic             Coordinates (Angstroms)
 Number     Number       Type             X           Y           Z
 ---------------------------------------------------------------------
      1          6           0       -0.814011   -0.046090   -0.127749
      2          6           0       -2.038552   -0.622379   -0.588119
      3          8           0       -2.210963   -1.823109   -0.794799
      4          6           0        0.291748   -0.913131    0.102781
      5          6           0       -0.965883   -1.852640    2.269771
      6          1           0       -0.896113   -2.205300    3.306891
      7          1           0       -1.608012   -0.964739    2.218741
      8          1           0       -1.399153   -2.624620    1.623661
      9          7           0        0.356688   -1.487701    1.754131
     10          1           0        0.776288   -0.749491    2.323271
     11          1           0        1.006807   -2.276291    1.778321
     12          6           0        1.716838   -0.510142   -0.163139
     13          6           0        2.388259    0.472018    0.576891
     14          6           0        3.708069    0.807607    0.279751
     15          6           0        4.376629    0.172096   -0.765689
     16          6           0        3.718048   -0.805723   -1.510089
     17          6           0        2.401798   -1.146832   -1.205699
     18          1           0        1.874259    1.000688    1.382811
     19          1           0        4.214060    1.577676    0.866041
     20          1           0        5.409389    0.439015   -0.999839
     21          1           0        4.232178   -1.309634   -2.331349
     22          1           0        1.891097   -1.914222   -1.793049
     23          1           0        0.056687   -1.872161   -0.375779
     24         35           0       -0.729570    1.805440    0.318451
     25          8           0       -3.036861    0.265662   -0.795839
     26          6           0       -4.250892   -0.263048   -1.280759
     27          1           0       -4.943061    0.583473   -1.367049
     28          1           0       -4.119222   -0.735708   -2.266089
     29          1           0       -4.666782   -1.016007   -0.593949
 ---------------------------------------------------------------------

 SCF Done:  E(RwB97XD) =  -3206.00254551     A.U. after   14 cycles

 The electronic state is 1-A.
 Alpha  occ. eigenvalues -- -483.03226 -62.61394 -56.42155 -56.41819 -56.41811
 Alpha  occ. eigenvalues --  -19.26727 -19.19691 -14.53758 -10.38981 -10.35937
 Alpha  occ. eigenvalues --  -10.34949 -10.33169 -10.32109 -10.31227 -10.31098
 Alpha  occ. eigenvalues --  -10.31069 -10.30989 -10.30944 -10.29033  -8.78327
 Alpha  occ. eigenvalues --   -6.60824  -6.59595  -6.59562  -2.71204  -2.70851
 Alpha  occ. eigenvalues --   -2.70824  -2.69845  -2.69845  -1.16493  -1.06814
 Alpha  occ. eigenvalues --   -1.06058  -0.96419  -0.90737  -0.86423  -0.84665
 Alpha  occ. eigenvalues --   -0.81066  -0.80355  -0.79534  -0.71735  -0.70527
 Alpha  occ. eigenvalues --   -0.67446  -0.66206  -0.62601  -0.61201  -0.58625
 Alpha  occ. eigenvalues --   -0.57592  -0.56959  -0.54846  -0.54609  -0.53056
 Alpha  occ. eigenvalues --   -0.52927  -0.51351  -0.50553  -0.49369  -0.48474
 Alpha  occ. eigenvalues --   -0.48237  -0.45863  -0.45594  -0.44248  -0.43460
 Alpha  occ. eigenvalues --   -0.42703  -0.41098  -0.37329  -0.35795  -0.35682
 Alpha  occ. eigenvalues --   -0.34031  -0.33577  -0.32074  -0.24688
 Alpha virt. eigenvalues --    0.04134   0.05173   0.09775   0.11584   0.12444
 Alpha virt. eigenvalues --    0.14180   0.15559   0.16296   0.17950   0.18385
 Alpha virt. eigenvalues --    0.19306   0.19497   0.20774   0.21698   0.22494

 Mulliken charges:
               1
     1  C   -0.317019
     2  C    0.281865
     3  O   -0.368508
     4  C    0.129130
     5  C    0.022096
     6  H    0.073645
     7  H    0.093637
     8  H    0.088604
     9  N   -0.186785
    10  H    0.176897
    11  H    0.182598
    12  C   -0.012839
    13  C   -0.045295
    14  C   -0.022887
    15  C   -0.020499
    16  C   -0.024923
    17  C   -0.036336
    18  H    0.020289
    19  H    0.030845
    20  H    0.033156
    21  H    0.032662
    22  H    0.027876
    23  H    0.048617
    24  Br  -0.119731
    25  O   -0.345814
    26  C    0.144315
    27  H    0.044619
    28  H    0.037730
    29  H    0.032055
 Sum of Mulliken charges =  -0.00000

 Dipole moment (field-independent basis, Debye):
    X=              4.1768    Y=             -3.4169    Z=              5.3057  Tot=              7.5678
 Quadrupole moment (field-independent basis, Debye-Ang):
   XX=            -92.7980   YY=           -100.9196   ZZ=            -88.3347
   XY=             -3.0033   XZ=             -0.8835   YZ=             -6.9769

  Exact polarizability:     217.069       9.695     151.794       0.059      15.621     138.700
 Approx polarizability:     183.984       9.747     166.093      -0.107      22.324     144.669

 ******    1 imaginary frequencies (negative Signs) ******

                      1                      2                      3
                      A                      A                      A
 Frequencies --   -231.5078                41.7600                49.2295
 Red. masses --      5.4154                 5.7138                 4.4525
 Frc consts  --      0.1710                 0.0059                 0.0064
 IR Inten    --    406.3677                 0.4691                 2.4426

                      4                      5                      6
                      A                      A                      A
 Frequencies --     66.7673                84.6562                97.4818
 Red. masses --      3.6126                 4.5079                 2.9939
 Frc consts  --      0.0095                 0.0190                 0.0168
 IR Inten    --      3.8053                 0.8959                11.8037

                      7                      8                      9
                      A                      A                      A
 Frequencies --    116.6077               122.5866               144.0063
 Red. masses --      1.5937                 3.3760                 2.5759
 Frc consts  --      0.0128                 0.0299                 0.0315
 IR Inten    --      6.6440                 7.8287                12.4587

                     10                     11                     12
                      A                      A                      A
 Frequencies --    153.4763               164.5601               207.1866
 Red. masses --      4.0053                 2.9409                 1.8475
 Frc consts  --      0.0556                 0.0469                 0.0467
 IR Inten    --      0.4911                 5.1001                 1.4982

                     13                     14                     15
                      A                      A                      A
 Frequencies --    244.7369               265.0849               319.7604
 Red. masses --      2.0325                 4.6727                 4.6236
 Frc consts  --      0.0717                 0.1935                 0.2785
 IR Inten    --      5.6689                14.5367                20.9889

                     16                     17                     18
                      A                      A                      A
 Frequencies --    324.2487               327.4112               415.5968
 Red. masses --      4.1535                 4.1063                 8.5457
 Frc consts  --      0.2573                 0.2593                 0.8696
 IR Inten    --      9.8403                20.2020                20.1553

                     19                     20                     21
                      A                      A                      A
 Frequencies --    425.3311               457.9431               570.7463
 Red. masses --      3.0247                 4.5934                 2.7413
 Frc consts  --      0.3224                 0.5675                 0.5261
 IR Inten    --      2.1157                26.9729               126.1922

                     22                     23                     24
                      A                      A                      A
 Frequencies --    605.0362               628.3124               638.5974
 Red. masses --      2.8773                 5.7982                 5.2385
 Frc consts  --      0.6206                 1.3486                 1.2587
 IR Inten    --     23.0176                28.7695                 1.2019

                     25                     26                     27
                      A                      A                      A
 Frequencies --    729.9318               756.8266               777.7643
 Red. masses --      1.5670                 5.0417                 6.9024
 Frc consts  --      0.4919                 1.7015                 2.4601
 IR Inten    --     55.9374                12.9606                31.7503

                     28                     29                     30
                      A                      A                      A
 Frequencies --    800.2176               819.9455               864.1990
 Red. masses --      2.1580                 2.0859                 4.1250
 Frc consts  --      0.8142                 0.8263                 1.8151
 IR Inten    --      4.1761                27.1282                15.5966

                     31                     32                     33
                      A                      A                      A
 Frequencies --    877.3804               958.9891              1006.6737
 Red. masses --      1.2437                 1.4451                 3.4252
 Frc consts  --      0.5641                 0.7830                 2.0451
 IR Inten    --      0.6731                 1.4340                 3.5336

                     34                     35                     36
                      A                      A                      A
 Frequencies --   1016.7508              1020.4381              1034.2679
 Red. masses --      1.5395                 3.7978                 1.2561
 Frc consts  --      0.9377                 2.3300                 0.7917
 IR Inten    --      0.5320                 1.6524                13.7179

                     37                     38                     39
                      A                      A                      A
 Frequencies --   1041.5676              1052.8694              1066.0528
 Red. masses --      1.3385                 1.5764                 1.9949
 Frc consts  --      0.8556                 1.0296                 1.3357
 IR Inten    --      0.5545                31.1432                 2.1920

                     40                     41                     42
                      A                      A                      A
 Frequencies --   1100.7172              1119.5557              1148.6420
 Red. masses --      2.2354                 1.6343                 4.3710
 Frc consts  --      1.5957                 1.2069                 3.3978
 IR Inten    --     50.5993                31.0982               184.6911

                     43                     44                     45
                      A                      A                      A
 Frequencies --   1177.1748              1184.9787              1204.3232
 Red. masses --      1.0930                 1.2913                 1.1090
 Frc consts  --      0.8924                 1.0683                 0.9477
 IR Inten    --      0.1441                 1.4661                 4.2183

                     46                     47                     48
                      A                      A                      A
 Frequencies --   1208.5010              1220.5568              1242.1459
 Red. masses --      1.8682                 1.7238                 1.9153
 Frc consts  --      1.6075                 1.5130                 1.7411
 IR Inten    --     31.0795               169.5600                38.4693

                     49                     50                     51
                      A                      A                      A
 Frequencies --   1269.2582              1289.9240              1329.4842
 Red. masses --      1.4489                 1.1881                 1.3130
 Frc consts  --      1.3753                 1.1647                 1.3673
 IR Inten    --     43.2703                29.0867                13.3212

                     52                     53                     54
                      A                      A                      A
 Frequencies --   1343.7246              1365.0691              1371.1789
 Red. masses --      1.4960                 4.1341                 3.9438
 Frc consts  --      1.5914                 4.5388                 4.3687
 IR Inten    --      1.2329               615.7581                 5.4351

                     55                     56                     57
                      A                      A                      A
 Frequencies --   1440.8538              1457.6287              1463.4103
 Red. masses --      1.3766                 1.7250                 1.0510
 Frc consts  --      1.6838                 2.1594                 1.3261
 IR Inten    --    130.8708               106.8645                16.7675

                     58                     59                     60
                      A                      A                      A
 Frequencies --   1473.7374              1474.9057              1490.2849
 Red. masses --      1.1770                 1.0858                 1.0614
 Frc consts  --      1.5062                 1.3916                 1.3889
 IR Inten    --    170.8374               134.4261                29.2372

                     61                     62                     63
                      A                      A                      A
 Frequencies --   1495.5183              1503.1908              1549.4447
 Red. masses --      1.5828                 1.9538                 2.7447
 Frc consts  --      2.0858                 2.6011                 3.8823
 IR Inten    --     24.2792               179.1900                 4.2872

                     64                     65                     66
                      A                      A                      A
 Frequencies --   1617.3846              1672.3551              1699.0760
 Red. masses --      1.0931                 6.1572                 6.3041
 Frc consts  --      1.6847                10.1459                10.7225
 IR Inten    --     46.4252                 8.0981                 2.7699

                     67                     68                     69
                      A                      A                      A
 Frequencies --   1733.6382              3049.7209              3084.5224
 Red. masses --     11.0131                 1.0325                 1.0341
 Frc consts  --     19.5019                 5.6582                 5.7968
 IR Inten    --    424.3441                72.8590                20.1937

                     70                     71                     72
                      A                      A                      A
 Frequencies --   3141.0974              3150.1914              3182.8438
 Red. masses --      1.1072                 1.0880                 1.1069
 Frc consts  --      6.4361                 6.3616                 6.6067
 IR Inten    --     30.7736                 3.1484                21.1778

                     73                     74                     75
                      A                      A                      A
 Frequencies --   3196.4965              3200.1837              3204.7926
 Red. masses --      1.1078                 1.0876                 1.0893
 Frc consts  --      6.6688                 6.5623                 6.5918
 IR Inten    --      1.5912                 3.1202                 0.6253

                     76                     77                     78
                      A                      A                      A
 Frequencies --   3212.3842              3213.9213              3220.4406
 Red. masses --      1.0928                 1.1085                 1.0970
 Frc consts  --      6.6445                 6.7460                 6.7032
 IR Inten    --      7.6354                 0.4311                18.0472

                     79                     80                     81
                      A                      A                      A
 Frequencies --   3229.3734              3511.4653              3591.1494
 Red. masses --      1.1012                 1.0531                 1.0960
 Frc consts  --      6.7666                 7.6508                 8.3278
 IR Inten    --     11.6404                45.4446                45.3769

 - Thermochemistry -
 -------------------
 Temperature   298.150 Kelvin.  Pressure   1.00000 Atm.
 Atom     1 has atomic number  6 and mass  12.00000

 Molecular mass:   271.02079 amu.
 Principal axes and moments of inertia in atomic units:
                           1         2         3
     Eigenvalues --  2600.323526050.793296788.99612
           X            0.99974   0.02261   0.00161
           Y           -0.02245   0.99758  -0.06585
           Z           -0.00309   0.06579   0.99783
 This molecule is an asymmetric top.
 Rotational symmetry number  1.
 Warning -- assumption of classical behavior for rotation
           may cause significant error
 Rotational temperatures (Kelvin)      0.03331     0.01431     0.01276
 Rotational constants (GHZ):           0.69404     0.29827     0.26583
    1 imaginary frequencies ignored.
 Zero-point vibrational energy     622837.2 (Joules/Mol)
                                  148.86166 (Kcal/Mol)
 Warning -- explicit consideration of  21 degrees of freedom as
           vibrations may cause significant error
 Vibrational temperatures:     60.08    70.83    96.06   121.80   140.25
          (Kelvin)            167.77   176.37   207.19   220.82   236.77
                              298.10   352.12   381.40   460.06   466.52
                              471.07   597.95   611.96   658.88   821.18
                              870.51   904.00   918.80  1050.21  1088.90
                             1119.03  1151.33  1179.72  1243.39  1262.35
                             1379.77  1448.38  1462.88  1468.18  1488.08
                             1498.58  1514.84  1533.81  1583.69  1610.79
                             1652.64  1693.69  1704.92  1732.75  1738.76
                             1756.11  1787.17  1826.18  1855.91  1912.83
                             1933.32  1964.03  1972.82  2073.07  2097.20
                             2105.52  2120.38  2122.06  2144.19  2151.72
                             2162.76  2229.31  2327.06  2406.15  2444.59
                             2494.32  4387.87  4437.94  4519.34  4532.42
                             4579.40  4599.05  4604.35  4610.98  4621.90
                             4624.12  4633.50  4646.35  5052.22  5166.86

 Zero-point correction=                           0.237226 (Hartree/Particle)
 Thermal correction to Energy=                    0.252600
 Thermal correction to Enthalpy=                  0.253544
 Thermal correction to Gibbs Free Energy=         0.192808
 Sum of electronic and zero-point Energies=          -3205.765319
 Sum of electronic and thermal Energies=             -3205.749946
 Sum of electronic and thermal Enthalpies=           -3205.749002
 Sum of electronic and thermal Free Energies=        -3205.809738

                     E (Thermal)             CV                S
                      KCal/Mol        Cal/Mol-Kelvin    Cal/Mol-Kelvin
 Total                  158.509             54.855            127.830
 Electronic               0.000              0.000              0.000
 Translational            0.889              2.981             42.690
 Rotational               0.889              2.981             33.035
 Vibrational            156.731             48.893             52.105
 Vibration     1          0.594              1.980              5.174
 Vibration     2          0.595              1.978              4.848
 Vibration     3          0.598              1.970              4.246
 Vibration     4          0.601              1.960              3.780
 Vibration     5          0.603              1.951              3.504
 Vibration     6          0.608              1.936              3.156
 Vibration     7          0.610              1.930              3.059
 Vibration     8          0.616              1.909              2.750
 Vibration     9          0.619              1.899              2.629
 Vibration    10          0.623              1.886              2.497
 Vibration    11          0.641              1.830              2.068
 Vibration    12          0.660              1.771              1.768
 Vibration    13          0.671              1.737              1.628
 Vibration    14          0.706              1.636              1.311
 Vibration    15          0.709              1.627              1.289
 Vibration    16          0.711              1.621              1.273
 Vibration    17          0.779              1.436              0.907
 Vibration    18          0.787              1.415              0.874
 Vibration    19          0.816              1.343              0.772
 Vibration    20          0.927              1.095              0.503
 Vibration    21          0.964              1.021              0.441

 Normal termination of Gaussian 16 at Mon Jan  1 14:57:45 2024.
