 Gaussian 16, Revision C.01,
 Gaussian 16:  ES64L-G16RevC.01  3-Jul-2019

 ----------------------------------------------------------------------
 # wb97xd def2svp scrf=(iefpcm,solvent=toluene) opt=(calcfc,ts,noeigen,
 maxcycles=50,maxstep=10)
 ----------------------------------------------------------------------

 ---------
 TS-68.out
 ---------
 Symbolic Z-matrix:
 Charge =  0 Multiplicity = 1

 SCF Done:  E(RwB97XD) =  -3205.97423548     A.U. after   15 cycles

  Exact polarizability:       0.000       0.000       0.000       0.000       0.000       0.000
 Approx polarizability:     187.470      -3.439     150.420      -2.053      20.613     159.794

 SCF Done:  E(RwB97XD) =  -3205.98095154     A.U. after   12 cycles
 SCF Done:  E(RwB97XD) =  -3205.98666018     A.U. after   12 cycles
 SCF Done:  E(RwB97XD) =  -3205.99225997     A.U. after   12 cycles
 SCF Done:  E(RwB97XD) =  -3205.99616017     A.U. after   12 cycles
 SCF Done:  E(RwB97XD) =  -3205.99807595     A.U. after   12 cycles
 SCF Done:  E(RwB97XD) =  -3205.99991576     A.U. after   12 cycles
 SCF Done:  E(RwB97XD) =  -3206.00144816     A.U. after   12 cycles
 SCF Done:  E(RwB97XD) =  -3206.00215087     A.U. after   12 cycles
 SCF Done:  E(RwB97XD) =  -3206.00241744     A.U. after   12 cycles
 SCF Done:  E(RwB97XD) =  -3206.00232401     A.U. after   12 cycles
 SCF Done:  E(RwB97XD) =  -3206.00253725     A.U. after   12 cycles
 SCF Done:  E(RwB97XD) =  -3206.00250056     A.U. after   12 cycles
 SCF Done:  E(RwB97XD) =  -3206.00254119     A.U. after   12 cycles
 SCF Done:  E(RwB97XD) =  -3206.00253139     A.U. after   11 cycles
 SCF Done:  E(RwB97XD) =  -3206.00254728     A.U. after   10 cycles
 SCF Done:  E(RwB97XD) =  -3206.00254542     A.U. after   10 cycles
 SCF Done:  E(RwB97XD) =  -3206.00254551     A.U. after    8 cycles
 SCF Done:  E(RwB97XD) =  -3206.00254634     A.U. after    8 cycles
 SCF Done:  E(RwB97XD) =  -3206.00254575     A.U. after    8 cycles
 Optimization completed.
    -- Stationary point found.

                         Standard orientation:
 ---------------------------------------------------------------------
 Center     Atomic      Atomic             Coordinates (Angstroms)
 Number     Number       Type             X           Y           Z
 ---------------------------------------------------------------------
      1          6           0       -0.813983    0.046089    0.127743
      2          6           0       -2.038491    0.622512    0.588018
      3          8           0       -2.210802    1.823284    0.794493
      4          6           0        0.291759    0.913011   -0.102940
      5          6           0       -0.965722    1.852387   -2.270056
      6          1           0       -0.896008    2.204173   -3.307466
      7          1           0       -1.608234    0.964811   -2.218156
      8          1           0       -1.398560    2.625081   -1.624501
      9          7           0        0.356759    1.487270   -1.754366
     10          1           0        0.776145    0.748791   -2.323317
     11          1           0        1.007120    2.275706   -1.778808
     12          6           0        1.716822    0.510063    0.163133
     13          6           0        2.388222   -0.472313   -0.576638
     14          6           0        3.708045   -0.807804   -0.279464
     15          6           0        4.376660   -0.171974    0.765752
     16          6           0        3.718100    0.806051    1.509895
     17          6           0        2.401819    1.147048    1.205476
     18          1           0        1.874198   -1.001217   -1.382388
     19          1           0        4.214022   -1.578037   -0.865555
     20          1           0        5.409443   -0.438796    0.999907
     21          1           0        4.232257    1.310222    2.330980
     22          1           0        1.891133    1.914574    1.792659
     23          1           0        0.056732    1.872092    0.375558
     24         35           0       -0.729729   -1.805467   -0.318311
     25          8           0       -3.036846   -0.265435    0.795931
     26          6           0       -4.250768    0.263406    1.280968
     27          1           0       -4.942920   -0.583105    1.367631
     28          1           0       -4.118904    0.736330    2.266145
     29          1           0       -4.666815    1.016190    0.594054
 ---------------------------------------------------------------------

 The electronic state is 1-A.
 Alpha  occ. eigenvalues -- -483.03226 -62.61394 -56.42156 -56.41819 -56.41811
 Alpha  occ. eigenvalues --  -19.26728 -19.19691 -14.53758 -10.38981 -10.35936
 Alpha  occ. eigenvalues --  -10.34950 -10.33169 -10.32108 -10.31226 -10.31098
 Alpha  occ. eigenvalues --  -10.31069 -10.30989 -10.30944 -10.29032  -8.78328
 Alpha  occ. eigenvalues --   -6.60824  -6.59595  -6.59562  -2.71205  -2.70852
 Alpha  occ. eigenvalues --   -2.70824  -2.69845  -2.69845  -1.16494  -1.06815
 Alpha  occ. eigenvalues --   -1.06058  -0.96419  -0.90738  -0.86423  -0.84665
 Alpha  occ. eigenvalues --   -0.81066  -0.80355  -0.79534  -0.71735  -0.70527
 Alpha  occ. eigenvalues --   -0.67446  -0.66206  -0.62601  -0.61201  -0.58625
 Alpha  occ. eigenvalues --   -0.57592  -0.56960  -0.54846  -0.54609  -0.53056
 Alpha  occ. eigenvalues --   -0.52927  -0.51351  -0.50553  -0.49369  -0.48474
 Alpha  occ. eigenvalues --   -0.48238  -0.45863  -0.45594  -0.44248  -0.43460
 Alpha  occ. eigenvalues --   -0.42702  -0.41098  -0.37330  -0.35795  -0.35682
 Alpha  occ. eigenvalues --   -0.34031  -0.33577  -0.32074  -0.24688
 Alpha virt. eigenvalues --    0.04134   0.05173   0.09776   0.11585   0.12445
 Alpha virt. eigenvalues --    0.14180   0.15559   0.16296   0.17950   0.18385
 Alpha virt. eigenvalues --    0.19305   0.19496   0.20774   0.21698   0.22494

 Mulliken charges:
               1
     1  C   -0.317038
     2  C    0.281861
     3  O   -0.368498
     4  C    0.129117
     5  C    0.022107
     6  H    0.073645
     7  H    0.093649
     8  H    0.088590
     9  N   -0.186776
    10  H    0.176903
    11  H    0.182615
    12  C   -0.012822
    13  C   -0.045306
    14  C   -0.022887
    15  C   -0.020500
    16  C   -0.024923
    17  C   -0.036351
    18  H    0.020289
    19  H    0.030844
    20  H    0.033154
    21  H    0.032661
    22  H    0.027876
    23  H    0.048623
    24  Br  -0.119737
    25  O   -0.345815
    26  C    0.144308
    27  H    0.044622
    28  H    0.037730
    29  H    0.032056
 Sum of Mulliken charges =  -0.00000

 Dipole moment (field-independent basis, Debye):
    X=              4.1768    Y=              3.4158    Z=             -5.3061  Tot=              7.5676
 Quadrupole moment (field-independent basis, Debye-Ang):
   XX=            -92.7980   YY=           -100.9223   ZZ=            -88.3325
   XY=              3.0031   XZ=              0.8809   YZ=             -6.9742

 Normal termination of Gaussian 16 at Mon Jan  1 11:15:54 2024.
