 Gaussian 16, Revision C.01,
 Gaussian 16:  ES64L-G16RevC.01  3-Jul-2019

 ----------------------------------------------------------------------
 # wb97xd def2svp geom=allchk scrf=(iefpcm,solvent=toluene) opt=(readfc
 ,ts,noeigen,maxcycles=50,maxstep=10)
 ----------------------------------------------------------------------

 Structure from the checkpoint file:  "TS-68_hf.chk"
 ---------
 TS-68.out
 ---------
 Charge =  0 Multiplicity = 1

 SCF Done:  E(RwB97XD) =  -3205.97423548     A.U. after   15 cycles
 SCF Done:  E(RwB97XD) =  -3205.98141698     A.U. after   12 cycles
 SCF Done:  E(RwB97XD) =  -3205.98786762     A.U. after   12 cycles
 SCF Done:  E(RwB97XD) =  -3205.99317920     A.U. after   12 cycles
 SCF Done:  E(RwB97XD) =  -3205.99712624     A.U. after   12 cycles
 SCF Done:  E(RwB97XD) =  -3205.99930554     A.U. after   12 cycles
 SCF Done:  E(RwB97XD) =  -3206.00045214     A.U. after   12 cycles
 SCF Done:  E(RwB97XD) =  -3206.00156860     A.U. after   12 cycles
 SCF Done:  E(RwB97XD) =  -3206.00194403     A.U. after   12 cycles
 SCF Done:  E(RwB97XD) =  -3206.00211500     A.U. after   12 cycles
 SCF Done:  E(RwB97XD) =  -3206.00220411     A.U. after   12 cycles
 SCF Done:  E(RwB97XD) =  -3206.00216159     A.U. after   12 cycles
 SCF Done:  E(RwB97XD) =  -3206.00247957     A.U. after   12 cycles
 SCF Done:  E(RwB97XD) =  -3206.00250218     A.U. after   12 cycles
 SCF Done:  E(RwB97XD) =  -3206.00252170     A.U. after   11 cycles
 SCF Done:  E(RwB97XD) =  -3206.00254591     A.U. after   10 cycles
 SCF Done:  E(RwB97XD) =  -3206.00254514     A.U. after   10 cycles
 SCF Done:  E(RwB97XD) =  -3206.00254621     A.U. after    9 cycles
 SCF Done:  E(RwB97XD) =  -3206.00254574     A.U. after    8 cycles
 SCF Done:  E(RwB97XD) =  -3206.00254599     A.U. after    8 cycles
 Optimization completed.
    -- Stationary point found.

                         Standard orientation:
 ---------------------------------------------------------------------
 Center     Atomic      Atomic             Coordinates (Angstroms)
 Number     Number       Type             X           Y           Z
 ---------------------------------------------------------------------
      1          6           0       -0.813988    0.046119    0.127697
      2          6           0       -2.038428    0.622618    0.587924
      3          8           0       -2.210791    1.823486    0.793935
      4          6           0        0.291744    0.913093   -0.103400
      5          6           0       -0.965904    1.851437   -2.270561
      6          1           0       -0.895997    2.203270   -3.307938
      7          1           0       -1.608155    0.963674   -2.218793
      8          1           0       -1.399079    2.624000   -1.625073
      9          7           0        0.356607    1.486713   -1.754573
     10          1           0        0.776240    0.748217   -2.323334
     11          1           0        1.006762    2.275319   -1.779195
     12          6           0        1.716807    0.510212    0.162929
     13          6           0        2.388297   -0.472277   -0.576607
     14          6           0        3.708087   -0.807723   -0.279222
     15          6           0        4.376568   -0.171736    0.765981
     16          6           0        3.717912    0.806396    1.509902
     17          6           0        2.401671    1.147347    1.205267
     18          1           0        1.874374   -1.001341   -1.382321
     19          1           0        4.214133   -1.578050   -0.865130
     20          1           0        5.409322   -0.438522    1.000306
     21          1           0        4.231965    1.310685    2.330979
     22          1           0        1.890906    1.914954    1.792276
     23          1           0        0.056665    1.872218    0.374978
     24         35           0       -0.729653   -1.805504   -0.318070
     25          8           0       -3.036739   -0.265289    0.796314
     26          6           0       -4.250619    0.263712    1.281266
     27          1           0       -4.942771   -0.582768    1.368249
     28          1           0       -4.118693    0.736952    2.266287
     29          1           0       -4.666714    1.016285    0.594150
 ---------------------------------------------------------------------

 The electronic state is 1-A.
 Alpha  occ. eigenvalues -- -483.03225 -62.61393 -56.42154 -56.41818 -56.41810
 Alpha  occ. eigenvalues --  -19.26725 -19.19687 -14.53768 -10.38978 -10.35937
 Alpha  occ. eigenvalues --  -10.34952 -10.33168 -10.32109 -10.31227 -10.31098
 Alpha  occ. eigenvalues --  -10.31070 -10.30989 -10.30944 -10.29029  -8.78326
 Alpha  occ. eigenvalues --   -6.60823  -6.59594  -6.59561  -2.71203  -2.70850
 Alpha  occ. eigenvalues --   -2.70823  -2.69844  -2.69844  -1.16490  -1.06821
 Alpha  occ. eigenvalues --   -1.06057  -0.96419  -0.90737  -0.86423  -0.84665
 Alpha  occ. eigenvalues --   -0.81066  -0.80358  -0.79534  -0.71734  -0.70528
 Alpha  occ. eigenvalues --   -0.67448  -0.66212  -0.62600  -0.61205  -0.58626
 Alpha  occ. eigenvalues --   -0.57593  -0.56962  -0.54845  -0.54607  -0.53054
 Alpha  occ. eigenvalues --   -0.52927  -0.51351  -0.50552  -0.49372  -0.48472
 Alpha  occ. eigenvalues --   -0.48241  -0.45865  -0.45593  -0.44247  -0.43460
 Alpha  occ. eigenvalues --   -0.42703  -0.41096  -0.37329  -0.35794  -0.35680
 Alpha  occ. eigenvalues --   -0.34031  -0.33577  -0.32072  -0.24685
 Alpha virt. eigenvalues --    0.04135   0.05173   0.09776   0.11587   0.12448
 Alpha virt. eigenvalues --    0.14179   0.15557   0.16296   0.17949   0.18385
 Alpha virt. eigenvalues --    0.19308   0.19496   0.20774   0.21697   0.22494

 Mulliken charges:
               1
     1  C   -0.317119
     2  C    0.281862
     3  O   -0.368587
     4  C    0.129127
     5  C    0.022109
     6  H    0.073669
     7  H    0.093678
     8  H    0.088626
     9  N   -0.186665
    10  H    0.176936
    11  H    0.182655
    12  C   -0.012848
    13  C   -0.045321
    14  C   -0.022884
    15  C   -0.020499
    16  C   -0.024921
    17  C   -0.036342
    18  H    0.020291
    19  H    0.030846
    20  H    0.033156
    21  H    0.032663
    22  H    0.027881
    23  H    0.048625
    24  Br  -0.119789
    25  O   -0.345835
    26  C    0.144321
    27  H    0.044609
    28  H    0.037716
    29  H    0.032041
 Sum of Mulliken charges =  -0.00000

 Dipole moment (field-independent basis, Debye):
    X=              4.1791    Y=              3.4160    Z=             -5.3094  Tot=              7.5712
 Quadrupole moment (field-independent basis, Debye-Ang):
   XX=            -92.8048   YY=           -100.9260   ZZ=            -88.3236
   XY=              3.0035   XZ=              0.8825   YZ=             -6.9749

 Normal termination of Gaussian 16 at Mon Jan  1 11:31:50 2024.
