 Gaussian 16, Revision C.01,
 Gaussian 16:  ES64L-G16RevC.01  3-Jul-2019

 ----------------------------------------------------------------------
 # wb97xd def2svp geom=allchk scrf=(iefpcm,solvent=toluene) opt=(readfc
 ,ts,noeigen,maxcycles=50,maxstep=10)
 ----------------------------------------------------------------------

 Structure from the checkpoint file:  "TS-68_sqm.chk"
 ---------
 TS-68.out
 ---------
 Charge =  0 Multiplicity = 1

 SCF Done:  E(RwB97XD) =  -3205.97423548     A.U. after   15 cycles
 SCF Done:  E(RwB97XD) =  -3205.98213016     A.U. after   12 cycles
 SCF Done:  E(RwB97XD) =  -3205.98858033     A.U. after   12 cycles
 SCF Done:  E(RwB97XD) =  -3205.99383707     A.U. after   12 cycles
 SCF Done:  E(RwB97XD) =  -3205.99765094     A.U. after   12 cycles
 SCF Done:  E(RwB97XD) =  -3205.99978264     A.U. after   12 cycles
 SCF Done:  E(RwB97XD) =  -3206.00038198     A.U. after   12 cycles
 SCF Done:  E(RwB97XD) =  -3206.00042816     A.U. after   12 cycles
 SCF Done:  E(RwB97XD) =  -3206.00054690     A.U. after   12 cycles
 SCF Done:  E(RwB97XD) =  -3206.00121725     A.U. after   12 cycles
 SCF Done:  E(RwB97XD) =  -3206.00253402     A.U. after   12 cycles
 SCF Done:  E(RwB97XD) =  -3206.00234633     A.U. after   12 cycles
 SCF Done:  E(RwB97XD) =  -3206.00248187     A.U. after   11 cycles
 SCF Done:  E(RwB97XD) =  -3206.00243090     A.U. after   12 cycles
 SCF Done:  E(RwB97XD) =  -3206.00253763     A.U. after   12 cycles
 SCF Done:  E(RwB97XD) =  -3206.00251053     A.U. after   11 cycles
 SCF Done:  E(RwB97XD) =  -3206.00254550     A.U. after   10 cycles
 SCF Done:  E(RwB97XD) =  -3206.00254603     A.U. after   10 cycles
 SCF Done:  E(RwB97XD) =  -3206.00254547     A.U. after    9 cycles
 SCF Done:  E(RwB97XD) =  -3206.00254551     A.U. after    7 cycles
 Optimization completed.
    -- Stationary point found.

                         Standard orientation:
 ---------------------------------------------------------------------
 Center     Atomic      Atomic             Coordinates (Angstroms)
 Number     Number       Type             X           Y           Z
 ---------------------------------------------------------------------
      1          6           0       -0.814013    0.046090    0.127751
      2          6           0       -2.038545    0.622382    0.588115
      3          8           0       -2.210962    1.823110    0.794803
      4          6           0        0.291755    0.913127   -0.102779
      5          6           0       -0.965876    1.852643   -2.269771
      6          1           0       -0.896113    2.205298   -3.306887
      7          1           0       -1.608010    0.964745   -2.218735
      8          1           0       -1.399150    2.624624   -1.623664
      9          7           0        0.356686    1.487700   -1.754132
     10          1           0        0.776289    0.749490   -2.323267
     11          1           0        1.006811    2.276291   -1.778321
     12          6           0        1.716840    0.510141    0.163142
     13          6           0        2.388256   -0.472016   -0.576888
     14          6           0        3.708067   -0.807611   -0.279750
     15          6           0        4.376630   -0.172102    0.765689
     16          6           0        3.718050    0.805723    1.510086
     17          6           0        2.401798    1.146834    1.205698
     18          1           0        1.874261   -1.000687   -1.382809
     19          1           0        4.214059   -1.577678   -0.866042
     20          1           0        5.409390   -0.439017    0.999836
     21          1           0        4.232176    1.309630    2.331350
     22          1           0        1.891100    1.914220    1.793054
     23          1           0        0.056693    1.872163    0.375783
     24         35           0       -0.729574   -1.805440   -0.318454
     25          8           0       -3.036862   -0.265662    0.795839
     26          6           0       -4.250889    0.263051    1.280755
     27          1           0       -4.943064   -0.583471    1.367054
     28          1           0       -4.119218    0.735707    2.266091
     29          1           0       -4.666782    1.016015    0.593949
 ---------------------------------------------------------------------

 The electronic state is 1-A.
 Alpha  occ. eigenvalues -- -483.03226 -62.61394 -56.42155 -56.41819 -56.41811
 Alpha  occ. eigenvalues --  -19.26727 -19.19691 -14.53758 -10.38981 -10.35937
 Alpha  occ. eigenvalues --  -10.34949 -10.33169 -10.32109 -10.31227 -10.31098
 Alpha  occ. eigenvalues --  -10.31070 -10.30989 -10.30944 -10.29033  -8.78327
 Alpha  occ. eigenvalues --   -6.60824  -6.59595  -6.59562  -2.71204  -2.70852
 Alpha  occ. eigenvalues --   -2.70824  -2.69845  -2.69845  -1.16493  -1.06814
 Alpha  occ. eigenvalues --   -1.06058  -0.96419  -0.90738  -0.86423  -0.84665
 Alpha  occ. eigenvalues --   -0.81066  -0.80355  -0.79534  -0.71735  -0.70527
 Alpha  occ. eigenvalues --   -0.67446  -0.66206  -0.62601  -0.61201  -0.58625
 Alpha  occ. eigenvalues --   -0.57592  -0.56959  -0.54846  -0.54608  -0.53056
 Alpha  occ. eigenvalues --   -0.52927  -0.51351  -0.50553  -0.49369  -0.48474
 Alpha  occ. eigenvalues --   -0.48237  -0.45863  -0.45594  -0.44248  -0.43460
 Alpha  occ. eigenvalues --   -0.42703  -0.41098  -0.37329  -0.35795  -0.35682
 Alpha  occ. eigenvalues --   -0.34031  -0.33577  -0.32074  -0.24688
 Alpha virt. eigenvalues --    0.04134   0.05173   0.09775   0.11584   0.12444
 Alpha virt. eigenvalues --    0.14180   0.15559   0.16296   0.17950   0.18385
 Alpha virt. eigenvalues --    0.19306   0.19497   0.20774   0.21697   0.22494

 Mulliken charges:
               1
     1  C   -0.317017
     2  C    0.281868
     3  O   -0.368508
     4  C    0.129124
     5  C    0.022096
     6  H    0.073644
     7  H    0.093636
     8  H    0.088604
     9  N   -0.186783
    10  H    0.176897
    11  H    0.182600
    12  C   -0.012834
    13  C   -0.045296
    14  C   -0.022888
    15  C   -0.020498
    16  C   -0.024925
    17  C   -0.036336
    18  H    0.020290
    19  H    0.030845
    20  H    0.033155
    21  H    0.032662
    22  H    0.027876
    23  H    0.048621
    24  Br  -0.119730
    25  O   -0.345819
    26  C    0.144312
    27  H    0.044619
    28  H    0.037729
    29  H    0.032056
 Sum of Mulliken charges =  -0.00000

 Dipole moment (field-independent basis, Debye):
    X=              4.1770    Y=              3.4169    Z=             -5.3058  Tot=              7.5679
 Quadrupole moment (field-independent basis, Debye-Ang):
   XX=            -92.7984   YY=           -100.9196   ZZ=            -88.3347
   XY=              3.0033   XZ=              0.8836   YZ=             -6.9769

 Normal termination of Gaussian 16 at Mon Jan  1 13:05:36 2024.
