 Gaussian 16, Revision C.01,
 Gaussian 16:  ES64L-G16RevC.01  3-Jul-2019

 -----------------------------------------------------------
 # wb97xd def2svp scrf=(iefpcm,solvent=toluene) freq=noraman
 -----------------------------------------------------------

 ----------------
 TS-68_opt_hf.out
 ----------------
 Symbolic Z-matrix:
 Charge =  0 Multiplicity = 1

                         Standard orientation:
 ---------------------------------------------------------------------
 Center     Atomic      Atomic             Coordinates (Angstroms)
 Number     Number       Type             X           Y           Z
 ---------------------------------------------------------------------
      1          6           0       -0.813991   -0.046118   -0.127700
      2          6           0       -2.038431   -0.622618   -0.587920
      3          8           0       -2.210792   -1.823488   -0.793930
      4          6           0        0.291739   -0.913089    0.103400
      5          6           0       -0.965902   -1.851438    2.270560
      6          1           0       -0.896002   -2.203268    3.307940
      7          1           0       -1.608161   -0.963668    2.218790
      8          1           0       -1.399082   -2.623998    1.625070
      9          7           0        0.356608   -1.486709    1.754570
     10          1           0        0.776239   -0.748219    2.323330
     11          1           0        1.006758   -2.275319    1.779200
     12          6           0        1.716809   -0.510210   -0.162930
     13          6           0        2.388299    0.472280    0.576610
     14          6           0        3.708089    0.807719    0.279220
     15          6           0        4.376569    0.171739   -0.765980
     16          6           0        3.717909   -0.806401   -1.509900
     17          6           0        2.401669   -1.147350   -1.205270
     18          1           0        1.874370    1.001340    1.382320
     19          1           0        4.214130    1.578049    0.865130
     20          1           0        5.409319    0.438519   -1.000310
     21          1           0        4.231958   -1.310691   -2.330980
     22          1           0        1.890908   -1.914950   -1.792280
     23          1           0        0.056668   -1.872219   -0.374980
     24         35           0       -0.729650    1.805502    0.318070
     25          8           0       -3.036741    0.265293   -0.796310
     26          6           0       -4.250621   -0.263707   -1.281270
     27          1           0       -4.942771    0.582774   -1.368250
     28          1           0       -4.118691   -0.736947   -2.266290
     29          1           0       -4.666711   -1.016287   -0.594150
 ---------------------------------------------------------------------

 SCF Done:  E(RwB97XD) =  -3206.00254599     A.U. after   14 cycles

 The electronic state is 1-A.
 Alpha  occ. eigenvalues -- -483.03225 -62.61393 -56.42154 -56.41818 -56.41810
 Alpha  occ. eigenvalues --  -19.26725 -19.19687 -14.53768 -10.38978 -10.35937
 Alpha  occ. eigenvalues --  -10.34952 -10.33168 -10.32109 -10.31227 -10.31098
 Alpha  occ. eigenvalues --  -10.31070 -10.30989 -10.30944 -10.29029  -8.78326
 Alpha  occ. eigenvalues --   -6.60823  -6.59594  -6.59561  -2.71203  -2.70850
 Alpha  occ. eigenvalues --   -2.70823  -2.69844  -2.69844  -1.16490  -1.06821
 Alpha  occ. eigenvalues --   -1.06057  -0.96419  -0.90737  -0.86423  -0.84665
 Alpha  occ. eigenvalues --   -0.81066  -0.80358  -0.79534  -0.71734  -0.70528
 Alpha  occ. eigenvalues --   -0.67448  -0.66212  -0.62600  -0.61205  -0.58626
 Alpha  occ. eigenvalues --   -0.57593  -0.56961  -0.54845  -0.54607  -0.53054
 Alpha  occ. eigenvalues --   -0.52927  -0.51351  -0.50552  -0.49372  -0.48472
 Alpha  occ. eigenvalues --   -0.48241  -0.45865  -0.45593  -0.44247  -0.43461
 Alpha  occ. eigenvalues --   -0.42703  -0.41096  -0.37329  -0.35794  -0.35680
 Alpha  occ. eigenvalues --   -0.34031  -0.33577  -0.32072  -0.24685
 Alpha virt. eigenvalues --    0.04135   0.05173   0.09776   0.11587   0.12448
 Alpha virt. eigenvalues --    0.14179   0.15557   0.16296   0.17949   0.18385
 Alpha virt. eigenvalues --    0.19308   0.19496   0.20774   0.21697   0.22494

 Mulliken charges:
               1
     1  C   -0.317115
     2  C    0.281862
     3  O   -0.368588
     4  C    0.129124
     5  C    0.022101
     6  H    0.073670
     7  H    0.093680
     8  H    0.088627
     9  N   -0.186660
    10  H    0.176934
    11  H    0.182655
    12  C   -0.012854
    13  C   -0.045317
    14  C   -0.022884
    15  C   -0.020494
    16  C   -0.024925
    17  C   -0.036337
    18  H    0.020291
    19  H    0.030846
    20  H    0.033154
    21  H    0.032664
    22  H    0.027878
    23  H    0.048627
    24  Br  -0.119789
    25  O   -0.345837
    26  C    0.144320
    27  H    0.044610
    28  H    0.037717
    29  H    0.032042
 Sum of Mulliken charges =  -0.00000

 Dipole moment (field-independent basis, Debye):
    X=              4.1790    Y=             -3.4160    Z=              5.3093  Tot=              7.5712
 Quadrupole moment (field-independent basis, Debye-Ang):
   XX=            -92.8049   YY=           -100.9260   ZZ=            -88.3235
   XY=             -3.0036   XZ=             -0.8824   YZ=             -6.9749

  Exact polarizability:     217.049       9.707     151.799       0.050      15.627     138.683
 Approx polarizability:     183.971       9.757     166.105      -0.116      22.322     144.647

 ******    1 imaginary frequencies (negative Signs) ******

                      1                      2                      3
                      A                      A                      A
 Frequencies --   -230.8173                41.7336                49.2857
 Red. masses --      5.4043                 5.7199                 4.4481
 Frc consts  --      0.1696                 0.0059                 0.0064
 IR Inten    --    405.1645                 0.4639                 2.4573

                      4                      5                      6
                      A                      A                      A
 Frequencies --     66.6688                84.6497                97.4811
 Red. masses --      3.6129                 4.5099                 2.9906
 Frc consts  --      0.0095                 0.0190                 0.0167
 IR Inten    --      3.8194                 0.8940                11.8724

                      7                      8                      9
                      A                      A                      A
 Frequencies --    116.7772               122.4935               144.1383
 Red. masses --      1.6004                 3.3724                 2.5739
 Frc consts  --      0.0129                 0.0298                 0.0315
 IR Inten    --      6.6674                 7.8499                12.5093

                     10                     11                     12
                      A                      A                      A
 Frequencies --    153.4422               164.5680               206.7421
 Red. masses --      3.9813                 2.9252                 1.8218
 Frc consts  --      0.0552                 0.0467                 0.0459
 IR Inten    --      0.4811                 5.0929                 1.6219

                     13                     14                     15
                      A                      A                      A
 Frequencies --    244.1289               265.0911               319.7002
 Red. masses --      2.0683                 4.6747                 4.6072
 Frc consts  --      0.0726                 0.1935                 0.2774
 IR Inten    --      5.6267                14.5952                19.7465

                     16                     17                     18
                      A                      A                      A
 Frequencies --    323.9270               327.3963               415.6482
 Red. masses --      4.0795                 4.2066                 8.5306
 Frc consts  --      0.2522                 0.2657                 0.8683
 IR Inten    --     11.8280                19.5979                20.1693

                     19                     20                     21
                      A                      A                      A
 Frequencies --    425.3238               457.9475               570.8238
 Red. masses --      3.0261                 4.5944                 2.7438
 Frc consts  --      0.3225                 0.5677                 0.5267
 IR Inten    --      2.1308                26.9811               126.4463

                     22                     23                     24
                      A                      A                      A
 Frequencies --    605.1014               628.3574               638.6184
 Red. masses --      2.8779                 5.7979                 5.2350
 Frc consts  --      0.6209                 1.3488                 1.2579
 IR Inten    --     22.8689                28.7872                 1.2154

                     25                     26                     27
                      A                      A                      A
 Frequencies --    729.9094               756.8293               777.7601
 Red. masses --      1.5667                 5.0465                 6.9213
 Frc consts  --      0.4918                 1.7031                 2.4668
 IR Inten    --     55.9317                12.9557                31.8770

                     28                     29                     30
                      A                      A                      A
 Frequencies --    800.2361               820.1012               864.2129
 Red. masses --      2.1580                 2.0819                 4.1242
 Frc consts  --      0.8142                 0.8250                 1.8148
 IR Inten    --      4.1484                27.0597                15.5896

                     31                     32                     33
                      A                      A                      A
 Frequencies --    877.3474               958.9498              1006.6772
 Red. masses --      1.2437                 1.4453                 3.4274
 Frc consts  --      0.5640                 0.7831                 2.0464
 IR Inten    --      0.6735                 1.4355                 3.5518

                     34                     35                     36
                      A                      A                      A
 Frequencies --   1016.7372              1020.4423              1034.3541
 Red. masses --      1.5373                 3.8140                 1.2564
 Frc consts  --      0.9363                 2.3400                 0.7920
 IR Inten    --      0.5301                 1.6485                13.7173

                     37                     38                     39
                      A                      A                      A
 Frequencies --   1041.5623              1052.8401              1066.0511
 Red. masses --      1.3386                 1.5773                 1.9954
 Frc consts  --      0.8556                 1.0301                 1.3361
 IR Inten    --      0.5541                31.0705                 2.2060

                     40                     41                     42
                      A                      A                      A
 Frequencies --   1100.7300              1119.5590              1148.6720
 Red. masses --      2.2341                 1.6342                 4.3717
 Frc consts  --      1.5948                 1.2068                 3.3985
 IR Inten    --     50.5113                31.0641               184.8801

                     43                     44                     45
                      A                      A                      A
 Frequencies --   1177.1743              1185.0123              1204.3352
 Red. masses --      1.0930                 1.2913                 1.1090
 Frc consts  --      0.8924                 1.0684                 0.9477
 IR Inten    --      0.1443                 1.4632                 4.1941

                     46                     47                     48
                      A                      A                      A
 Frequencies --   1208.5242              1220.6278              1242.2274
 Red. masses --      1.8686                 1.7269                 1.9126
 Frc consts  --      1.6080                 1.5160                 1.7389
 IR Inten    --     31.2555               169.2931                38.5710

                     49                     50                     51
                      A                      A                      A
 Frequencies --   1269.3811              1290.2217              1329.4840
 Red. masses --      1.4489                 1.1877                 1.3127
 Frc consts  --      1.3756                 1.1649                 1.3670
 IR Inten    --     43.3859                29.1415                13.2781

                     52                     53                     54
                      A                      A                      A
 Frequencies --   1343.7438              1365.1169              1371.1772
 Red. masses --      1.4956                 4.1315                 3.9441
 Frc consts  --      1.5911                 4.5363                 4.3690
 IR Inten    --      1.2299               614.8897                 5.4620

                     55                     56                     57
                      A                      A                      A
 Frequencies --   1440.5822              1457.5333              1463.4290
 Red. masses --      1.3670                 1.7389                 1.0508
 Frc consts  --      1.6715                 2.1765                 1.3259
 IR Inten    --    127.6794               110.0847                16.7002

                     58                     59                     60
                      A                      A                      A
 Frequencies --   1473.6856              1474.8410              1490.1817
 Red. masses --      1.1627                 1.0984                 1.0607
 Frc consts  --      1.4877                 1.4076                 1.3878
 IR Inten    --    153.6021               151.7813                29.0049

                     61                     62                     63
                      A                      A                      A
 Frequencies --   1495.5340              1503.2189              1549.4437
 Red. masses --      1.5869                 1.9516                 2.7445
 Frc consts  --      2.0912                 2.5983                 3.8821
 IR Inten    --     24.1307               179.7185                 4.2842

                     64                     65                     66
                      A                      A                      A
 Frequencies --   1617.3668              1672.3535              1699.0782
 Red. masses --      1.0931                 6.1572                 6.3041
 Frc consts  --      1.6847                10.1459                10.7227
 IR Inten    --     46.4608                 8.1139                 2.7768

                     67                     68                     69
                      A                      A                      A
 Frequencies --   1733.5760              3049.6686              3084.5144
 Red. masses --     11.0119                 1.0325                 1.0341
 Frc consts  --     19.4984                 5.6580                 5.7968
 IR Inten    --    424.5328                72.9019                20.1837

                     70                     71                     72
                      A                      A                      A
 Frequencies --   3141.0348              3150.0889              3182.7509
 Red. masses --      1.1072                 1.0880                 1.1069
 Frc consts  --      6.4358                 6.3612                 6.6064
 IR Inten    --     30.7996                 3.1530                21.1795

                     73                     74                     75
                      A                      A                      A
 Frequencies --   3196.5069              3200.2045              3204.7844
 Red. masses --      1.1078                 1.0875                 1.0893
 Frc consts  --      6.6689                 6.5623                 6.5919
 IR Inten    --      1.5793                 3.1374                 0.6259

                     76                     77                     78
                      A                      A                      A
 Frequencies --   3212.3947              3213.8489              3220.4160
 Red. masses --      1.0929                 1.1085                 1.0970
 Frc consts  --      6.6446                 6.7458                 6.7031
 IR Inten    --      7.6007                 0.4377                18.0416

                     79                     80                     81
                      A                      A                      A
 Frequencies --   3229.3748              3511.1937              3590.8665
 Red. masses --      1.1012                 1.0531                 1.0960
 Frc consts  --      6.7666                 7.6497                 8.3264
 IR Inten    --     11.6560                45.4784                45.3783

 - Thermochemistry -
 -------------------
 Temperature   298.150 Kelvin.  Pressure   1.00000 Atm.
 Atom     1 has atomic number  6 and mass  12.00000

 Molecular mass:   271.02079 amu.
 Principal axes and moments of inertia in atomic units:
                           1         2         3
     Eigenvalues --  2600.357116050.647836788.58659
           X            0.99974   0.02261   0.00161
           Y           -0.02246   0.99758  -0.06580
           Z           -0.00309   0.06574   0.99783
 This molecule is an asymmetric top.
 Rotational symmetry number  1.
 Warning -- assumption of classical behavior for rotation
           may cause significant error
 Rotational temperatures (Kelvin)      0.03331     0.01431     0.01276
 Rotational constants (GHZ):           0.69404     0.29827     0.26585
    1 imaginary frequencies ignored.
 Zero-point vibrational energy     622826.8 (Joules/Mol)
                                  148.85918 (Kcal/Mol)
 Warning -- explicit consideration of  21 degrees of freedom as
           vibrations may cause significant error
 Vibrational temperatures:     60.05    70.91    95.92   121.79   140.25
          (Kelvin)            168.02   176.24   207.38   220.77   236.78
                              297.46   351.25   381.41   459.98   466.06
                              471.05   598.03   611.95   658.88   821.29
                              870.61   904.07   918.83  1050.18  1088.91
                             1119.02  1151.36  1179.94  1243.41  1262.31
                             1379.71  1448.38  1462.86  1468.19  1488.20
                             1498.58  1514.80  1533.81  1583.70  1610.80
                             1652.68  1693.69  1704.97  1732.77  1738.80
                             1756.21  1787.29  1826.36  1856.34  1912.83
                             1933.35  1964.10  1972.82  2072.68  2097.07
                             2105.55  2120.30  2121.97  2144.04  2151.74
                             2162.80  2229.30  2327.03  2406.14  2444.59
                             2494.23  4387.79  4437.93  4519.25  4532.28
                             4579.27  4599.06  4604.38  4610.97  4621.92
                             4624.01  4633.46  4646.35  5051.82  5166.46

 Zero-point correction=                           0.237222 (Hartree/Particle)
 Thermal correction to Energy=                    0.252597
 Thermal correction to Enthalpy=                  0.253542
 Thermal correction to Gibbs Free Energy=         0.192801
 Sum of electronic and zero-point Energies=          -3205.765324
 Sum of electronic and thermal Energies=             -3205.749949
 Sum of electronic and thermal Enthalpies=           -3205.749004
 Sum of electronic and thermal Free Energies=        -3205.809745

                     E (Thermal)             CV                S
                      KCal/Mol        Cal/Mol-Kelvin    Cal/Mol-Kelvin
 Total                  158.507             54.856            127.839
 Electronic               0.000              0.000              0.000
 Translational            0.889              2.981             42.690
 Rotational               0.889              2.981             33.035
 Vibrational            156.730             48.894             52.114
 Vibration     1          0.594              1.981              5.175
 Vibration     2          0.595              1.978              4.846
 Vibration     3          0.598              1.970              4.249
 Vibration     4          0.601              1.960              3.780
 Vibration     5          0.603              1.951              3.504
 Vibration     6          0.608              1.935              3.153
 Vibration     7          0.610              1.930              3.061
 Vibration     8          0.616              1.909              2.748
 Vibration     9          0.619              1.899              2.629
 Vibration    10          0.623              1.886              2.497
 Vibration    11          0.641              1.830              2.072
 Vibration    12          0.659              1.772              1.773
 Vibration    13          0.671              1.737              1.628
 Vibration    14          0.706              1.636              1.312
 Vibration    15          0.708              1.628              1.290
 Vibration    16          0.711              1.621              1.273
 Vibration    17          0.779              1.436              0.907
 Vibration    18          0.787              1.415              0.874
 Vibration    19          0.816              1.343              0.772
 Vibration    20          0.927              1.094              0.503
 Vibration    21          0.964              1.021              0.441

 Normal termination of Gaussian 16 at Mon Jan  1 14:57:46 2024.
