 Gaussian 16, Revision C.01,
 Gaussian 16:  ES64L-G16RevC.01  3-Jul-2019

 -----------------------------------------------------------
 # wb97xd def2svp scrf=(iefpcm,solvent=toluene) freq=noraman
 -----------------------------------------------------------

 -----------------
 TS-68_opt_dft.out
 -----------------
 Symbolic Z-matrix:
 Charge =  0 Multiplicity = 1

                         Standard orientation:
 ---------------------------------------------------------------------
 Center     Atomic      Atomic             Coordinates (Angstroms)
 Number     Number       Type             X           Y           Z
 ---------------------------------------------------------------------
      1          6           0       -0.813980   -0.046090   -0.127741
      2          6           0       -2.038489   -0.622511   -0.588021
      3          8           0       -2.210799   -1.823281   -0.794491
      4          6           0        0.291761   -0.913010    0.102939
      5          6           0       -0.965719   -1.852391    2.270059
      6          1           0       -0.896009   -2.204170    3.307469
      7          1           0       -1.608229   -0.964811    2.218159
      8          1           0       -1.398559   -2.625081    1.624499
      9          7           0        0.356761   -1.487270    1.754369
     10          1           0        0.776141   -0.748790    2.323319
     11          1           0        1.007121   -2.275710    1.778809
     12          6           0        1.716821   -0.510059   -0.163131
     13          6           0        2.388220    0.472311    0.576639
     14          6           0        3.708040    0.807801    0.279459
     15          6           0        4.376660    0.171972   -0.765751
     16          6           0        3.718101   -0.806049   -1.509891
     17          6           0        2.401821   -1.147049   -1.205481
     18          1           0        1.874200    1.001221    1.382389
     19          1           0        4.214020    1.578042    0.865549
     20          1           0        5.409440    0.438802   -0.999911
     21          1           0        4.232261   -1.310218   -2.330981
     22          1           0        1.891131   -1.914569   -1.792661
     23          1           0        0.056731   -1.872090   -0.375561
     24         35           0       -0.729730    1.805470    0.318309
     25          8           0       -3.036850    0.265429   -0.795931
     26          6           0       -4.250769   -0.263412   -1.280971
     27          1           0       -4.942920    0.583098   -1.367631
     28          1           0       -4.118899   -0.736332   -2.266141
     29          1           0       -4.666809   -1.016192   -0.594051
 ---------------------------------------------------------------------

 SCF Done:  E(RwB97XD) =  -3206.00254575     A.U. after   14 cycles

 The electronic state is 1-A.
 Alpha  occ. eigenvalues -- -483.03226 -62.61394 -56.42156 -56.41819 -56.41811
 Alpha  occ. eigenvalues --  -19.26728 -19.19691 -14.53758 -10.38981 -10.35936
 Alpha  occ. eigenvalues --  -10.34949 -10.33169 -10.32108 -10.31226 -10.31098
 Alpha  occ. eigenvalues --  -10.31069 -10.30989 -10.30944 -10.29032  -8.78328
 Alpha  occ. eigenvalues --   -6.60824  -6.59595  -6.59562  -2.71204  -2.70852
 Alpha  occ. eigenvalues --   -2.70824  -2.69845  -2.69845  -1.16494  -1.06814
 Alpha  occ. eigenvalues --   -1.06058  -0.96419  -0.90738  -0.86423  -0.84665
 Alpha  occ. eigenvalues --   -0.81066  -0.80355  -0.79534  -0.71735  -0.70527
 Alpha  occ. eigenvalues --   -0.67446  -0.66206  -0.62601  -0.61201  -0.58625
 Alpha  occ. eigenvalues --   -0.57592  -0.56960  -0.54846  -0.54609  -0.53056
 Alpha  occ. eigenvalues --   -0.52927  -0.51351  -0.50553  -0.49369  -0.48474
 Alpha  occ. eigenvalues --   -0.48238  -0.45863  -0.45594  -0.44248  -0.43460
 Alpha  occ. eigenvalues --   -0.42702  -0.41098  -0.37330  -0.35795  -0.35682
 Alpha  occ. eigenvalues --   -0.34031  -0.33577  -0.32074  -0.24688
 Alpha virt. eigenvalues --    0.04134   0.05173   0.09776   0.11585   0.12445
 Alpha virt. eigenvalues --    0.14180   0.15559   0.16296   0.17950   0.18385
 Alpha virt. eigenvalues --    0.19305   0.19496   0.20774   0.21698   0.22494

 Mulliken charges:
               1
     1  C   -0.317038
     2  C    0.281860
     3  O   -0.368494
     4  C    0.129116
     5  C    0.022106
     6  H    0.073644
     7  H    0.093648
     8  H    0.088591
     9  N   -0.186777
    10  H    0.176902
    11  H    0.182616
    12  C   -0.012826
    13  C   -0.045304
    14  C   -0.022892
    15  C   -0.020498
    16  C   -0.024926
    17  C   -0.036344
    18  H    0.020290
    19  H    0.030846
    20  H    0.033154
    21  H    0.032662
    22  H    0.027874
    23  H    0.048623
    24  Br  -0.119738
    25  O   -0.345815
    26  C    0.144313
    27  H    0.044622
    28  H    0.037729
    29  H    0.032056
 Sum of Mulliken charges =  -0.00000

 Dipole moment (field-independent basis, Debye):
    X=              4.1768    Y=             -3.4158    Z=              5.3060  Tot=              7.5675
 Quadrupole moment (field-independent basis, Debye-Ang):
   XX=            -92.7979   YY=           -100.9223   ZZ=            -88.3325
   XY=             -3.0029   XZ=             -0.8808   YZ=             -6.9742

  Exact polarizability:     217.069       9.692     151.802       0.057      15.623     138.690
 Approx polarizability:     183.985       9.742     166.103      -0.110      22.323     144.656

 ******    1 imaginary frequencies (negative Signs) ******

                      1                      2                      3
                      A                      A                      A
 Frequencies --   -231.4648                41.7291                49.2148
 Red. masses --      5.4110                 5.7178                 4.4477
 Frc consts  --      0.1708                 0.0059                 0.0063
 IR Inten    --    406.2080                 0.4672                 2.4399

                      4                      5                      6
                      A                      A                      A
 Frequencies --     66.6928                84.6427                97.3999
 Red. masses --      3.6121                 4.5061                 2.9867
 Frc consts  --      0.0095                 0.0190                 0.0167
 IR Inten    --      3.8133                 0.8836                11.7598

                      7                      8                      9
                      A                      A                      A
 Frequencies --    116.6429               122.4231               144.0480
 Red. masses --      1.5960                 3.3739                 2.5704
 Frc consts  --      0.0128                 0.0298                 0.0314
 IR Inten    --      6.6003                 7.9039                12.4524

                     10                     11                     12
                      A                      A                      A
 Frequencies --    153.4028               164.5335               206.6024
 Red. masses --      4.0006                 2.9282                 1.8224
 Frc consts  --      0.0555                 0.0467                 0.0458
 IR Inten    --      0.4825                 5.1259                 1.6505

                     13                     14                     15
                      A                      A                      A
 Frequencies --    244.1459               265.0461               319.6960
 Red. masses --      2.0708                 4.6905                 4.6096
 Frc consts  --      0.0727                 0.1941                 0.2776
 IR Inten    --      5.6738                14.5078                20.0089

                     16                     17                     18
                      A                      A                      A
 Frequencies --    323.9662               327.3499               415.6208
 Red. masses --      4.0567                 4.2243                 8.5402
 Frc consts  --      0.2509                 0.2667                 0.8692
 IR Inten    --     11.7640                19.2965                20.1474

                     19                     20                     21
                      A                      A                      A
 Frequencies --    425.3239               457.9242               570.7590
 Red. masses --      3.0252                 4.5940                 2.7427
 Frc consts  --      0.3224                 0.5676                 0.5264
 IR Inten    --      2.1198                26.9845               126.2963

                     22                     23                     24
                      A                      A                      A
 Frequencies --    605.0900               628.3238               638.6117
 Red. masses --      2.8779                 5.7978                 5.2352
 Frc consts  --      0.6208                 1.3486                 1.2579
 IR Inten    --     22.9246                28.7561                 1.2096

                     25                     26                     27
                      A                      A                      A
 Frequencies --    729.9157               756.8363               777.7556
 Red. masses --      1.5669                 5.0430                 6.9073
 Frc consts  --      0.4919                 1.7019                 2.4618
 IR Inten    --     55.9380                12.9686                31.7929

                     28                     29                     30
                      A                      A                      A
 Frequencies --    800.2353               819.9919               864.2072
 Red. masses --      2.1578                 2.0841                 4.1253
 Frc consts  --      0.8141                 0.8256                 1.8153
 IR Inten    --      4.1659                27.0936                15.5950

                     31                     32                     33
                      A                      A                      A
 Frequencies --    877.3604               958.9581              1006.6775
 Red. masses --      1.2437                 1.4452                 3.4239
 Frc consts  --      0.5641                 0.7830                 2.0444
 IR Inten    --      0.6738                 1.4328                 3.5381

                     34                     35                     36
                      A                      A                      A
 Frequencies --   1016.7480              1020.4375              1034.2588
 Red. masses --      1.5377                 3.8098                 1.2565
 Frc consts  --      0.9366                 2.3374                 0.7919
 IR Inten    --      0.5311                 1.6578                13.7765

                     37                     38                     39
                      A                      A                      A
 Frequencies --   1041.5727              1052.8538              1066.0661
 Red. masses --      1.3385                 1.5751                 1.9944
 Frc consts  --      0.8556                 1.0287                 1.3355
 IR Inten    --      0.5504                31.1836                 2.1911

                     40                     41                     42
                      A                      A                      A
 Frequencies --   1100.6980              1119.5396              1148.6636
 Red. masses --      2.2395                 1.6343                 4.3717
 Frc consts  --      1.5986                 1.2069                 3.3985
 IR Inten    --     50.5803                30.9685               184.6185

                     43                     44                     45
                      A                      A                      A
 Frequencies --   1177.1836              1184.9873              1204.3306
 Red. masses --      1.0930                 1.2913                 1.1090
 Frc consts  --      0.8924                 1.0684                 0.9477
 IR Inten    --      0.1442                 1.4648                 4.1942

                     46                     47                     48
                      A                      A                      A
 Frequencies --   1208.5321              1220.5974              1242.2292
 Red. masses --      1.8678                 1.7253                 1.9121
 Frc consts  --      1.6073                 1.5145                 1.7385
 IR Inten    --     31.1602               169.3784                38.7561

                     49                     50                     51
                      A                      A                      A
 Frequencies --   1269.2570              1289.9766              1329.4942
 Red. masses --      1.4501                 1.1878                 1.3129
 Frc consts  --      1.3764                 1.1646                 1.3673
 IR Inten    --     43.1836                29.1862                13.2929

                     52                     53                     54
                      A                      A                      A
 Frequencies --   1343.7475              1365.0947              1371.1837
 Red. masses --      1.4952                 4.1357                 3.9456
 Frc consts  --      1.5907                 4.5407                 4.3707
 IR Inten    --      1.2553               615.9719                 5.4662

                     55                     56                     57
                      A                      A                      A
 Frequencies --   1440.6547              1457.6157              1463.4271
 Red. masses --      1.3675                 1.7374                 1.0509
 Frc consts  --      1.6722                 2.1748                 1.3260
 IR Inten    --    127.5655               109.1671                16.6430

                     58                     59                     60
                      A                      A                      A
 Frequencies --   1473.6431              1474.7843              1490.2053
 Red. masses --      1.1560                 1.1047                 1.0609
 Frc consts  --      1.4791                 1.4156                 1.3881
 IR Inten    --    145.3136               160.3149                29.0610

                     61                     62                     63
                      A                      A                      A
 Frequencies --   1495.5218              1503.2259              1549.4672
 Red. masses --      1.5841                 1.9555                 2.7454
 Frc consts  --      2.0874                 2.6035                 3.8835
 IR Inten    --     24.3699               179.7871                 4.3185

                     64                     65                     66
                      A                      A                      A
 Frequencies --   1617.4099              1672.3617              1699.0830
 Red. masses --      1.0931                 6.1572                 6.3042
 Frc consts  --      1.6848                10.1461                10.7228
 IR Inten    --     46.4472                 8.0987                 2.7661

                     67                     68                     69
                      A                      A                      A
 Frequencies --   1733.6901              3049.7286              3084.5149
 Red. masses --     11.0136                 1.0325                 1.0341
 Frc consts  --     19.5039                 5.6582                 5.7968
 IR Inten    --    424.2650                72.8764                20.2055

                     70                     71                     72
                      A                      A                      A
 Frequencies --   3141.1232              3150.1074              3182.7847
 Red. masses --      1.1072                 1.0880                 1.1069
 Frc consts  --      6.4362                 6.3612                 6.6065
 IR Inten    --     30.7790                 3.1482                21.1662

                     73                     74                     75
                      A                      A                      A
 Frequencies --   3196.4853              3200.1813              3204.7758
 Red. masses --      1.1078                 1.0875                 1.0893
 Frc consts  --      6.6687                 6.5621                 6.5918
 IR Inten    --      1.5851                 3.1284                 0.6137

                     76                     77                     78
                      A                      A                      A
 Frequencies --   3212.3825              3213.8329              3220.3897
 Red. masses --      1.0929                 1.1085                 1.0970
 Frc consts  --      6.6446                 6.7457                 6.7031
 IR Inten    --      7.6307                 0.4401                18.0502

                     79                     80                     81
                      A                      A                      A
 Frequencies --   3229.3410              3511.2278              3590.9268
 Red. masses --      1.1012                 1.0531                 1.0960
 Frc consts  --      6.7665                 7.6498                 8.3267
 IR Inten    --     11.6447                45.4887                45.3463

 - Thermochemistry -
 -------------------
 Temperature   298.150 Kelvin.  Pressure   1.00000 Atm.
 Atom     1 has atomic number  6 and mass  12.00000

 Molecular mass:   271.02079 amu.
 Principal axes and moments of inertia in atomic units:
                           1         2         3
     Eigenvalues --  2600.363866050.767106788.96808
           X            0.99974   0.02261   0.00161
           Y           -0.02246   0.99758  -0.06582
           Z           -0.00309   0.06577   0.99783
 This molecule is an asymmetric top.
 Rotational symmetry number  1.
 Warning -- assumption of classical behavior for rotation
           may cause significant error
 Rotational temperatures (Kelvin)      0.03331     0.01431     0.01276
 Rotational constants (GHZ):           0.69403     0.29827     0.26583
    1 imaginary frequencies ignored.
 Zero-point vibrational energy     622820.6 (Joules/Mol)
                                  148.85769 (Kcal/Mol)
 Warning -- explicit consideration of  21 degrees of freedom as
           vibrations may cause significant error
 Vibrational temperatures:     60.04    70.81    95.96   121.78   140.14
          (Kelvin)            167.82   176.14   207.25   220.71   236.73
                              297.25   351.27   381.34   459.97   466.12
                              470.98   597.99   611.95   658.85   821.19
                              870.59   904.02   918.82  1050.19  1088.92
                             1119.02  1151.36  1179.79  1243.40  1262.33
                             1379.73  1448.38  1462.87  1468.18  1488.07
                             1498.59  1514.82  1533.83  1583.66  1610.77
                             1652.67  1693.70  1704.93  1732.76  1738.81
                             1756.17  1787.29  1826.18  1855.99  1912.85
                             1933.35  1964.07  1972.83  2072.78  2097.18
                             2105.55  2120.24  2121.89  2144.07  2151.72
                             2162.81  2229.34  2327.09  2406.16  2444.60
                             2494.39  4387.88  4437.93  4519.38  4532.30
                             4579.32  4599.03  4604.35  4610.96  4621.90
                             4623.99  4633.42  4646.30  5051.87  5166.54

 Zero-point correction=                           0.237220 (Hartree/Particle)
 Thermal correction to Energy=                    0.252596
 Thermal correction to Enthalpy=                  0.253541
 Thermal correction to Gibbs Free Energy=         0.192795
 Sum of electronic and zero-point Energies=          -3205.765326
 Sum of electronic and thermal Energies=             -3205.749949
 Sum of electronic and thermal Enthalpies=           -3205.749005
 Sum of electronic and thermal Free Energies=        -3205.809751

                     E (Thermal)             CV                S
                      KCal/Mol        Cal/Mol-Kelvin    Cal/Mol-Kelvin
 Total                  158.507             54.858            127.851
 Electronic               0.000              0.000              0.000
 Translational            0.889              2.981             42.690
 Rotational               0.889              2.981             33.035
 Vibrational            156.729             48.896             52.126
 Vibration     1          0.594              1.981              5.175
 Vibration     2          0.595              1.978              4.849
 Vibration     3          0.598              1.970              4.249
 Vibration     4          0.601              1.960              3.780
 Vibration     5          0.603              1.951              3.506
 Vibration     6          0.608              1.936              3.155
 Vibration     7          0.610              1.930              3.062
 Vibration     8          0.616              1.909              2.749
 Vibration     9          0.619              1.899              2.630
 Vibration    10          0.623              1.886              2.497
 Vibration    11          0.641              1.830              2.073
 Vibration    12          0.659              1.772              1.772
 Vibration    13          0.671              1.737              1.628
 Vibration    14          0.706              1.636              1.312
 Vibration    15          0.709              1.628              1.290
 Vibration    16          0.711              1.621              1.273
 Vibration    17          0.779              1.436              0.907
 Vibration    18          0.787              1.415              0.874
 Vibration    19          0.816              1.343              0.772
 Vibration    20          0.927              1.094              0.503
 Vibration    21          0.964              1.021              0.441

 Normal termination of Gaussian 16 at Mon Jan  1 14:57:46 2024.
