 Gaussian 16, Revision C.01,
 Gaussian 16:  ES64L-G16RevC.01  3-Jul-2019

 -----------------------------------------------------------
 # m062x 6-31g(d) scrf=(iefpcm,solvent=benzene) freq=noraman
 -----------------------------------------------------------

 ----------
 Structure1
 ----------
 Symbolic Z-matrix:
 Charge =  0 Multiplicity = 1

                         Standard orientation:
 ---------------------------------------------------------------------
 Center     Atomic      Atomic             Coordinates (Angstroms)
 Number     Number       Type             X           Y           Z
 ---------------------------------------------------------------------
      1          6           0       -0.350587   -0.728530    0.474176
      2          6           0       -0.497220    0.651430    0.671692
      3          6           0       -1.733683    1.254080    0.415346
      4          6           0       -2.803930    0.446574   -0.024361
      5          6           0       -2.603054   -0.932588   -0.241817
      6          6           0       -1.376444   -1.555520    0.015836
      7          8           0        0.924011   -1.059951    0.796261
      8          7           0        0.683455    1.181662    1.106034
      9          1           0       -1.853202    2.319792    0.552816
     10          1           0       -3.410899   -1.538114   -0.636107
     11          1           0       -1.205346   -2.609184   -0.148278
     12          6           0        1.496532    0.140504    1.121442
     13          6           0        2.973866    0.143655    1.548910
     14          6           0        3.754627    1.391002    1.023276
     15          6           0        4.139206    1.395588   -0.489800
     16          6           0        5.083138    0.200867   -0.719614
     17          6           0        4.333958   -1.120295   -0.403699
     18          6           0        3.756995   -1.125118    1.056025
     19          1           0        4.668561    1.524453    1.605481
     20          1           0        3.155033    2.279949    1.229653
     21          6           0        4.906518    2.700474   -0.808218
     22          6           0        2.906749    1.275327   -1.449641
     23          1           0        5.455515    0.196350   -1.747265
     24          1           0        5.969749    0.284764   -0.088552
     25          6           0        5.279982   -2.335318   -0.598295
     26          1           0        4.632531   -1.210411    1.701622
     27          1           0        3.188095   -2.039827    1.238085
     28          6           0        3.015649    0.171527    3.097905
     29          1           0        5.261227    2.721466   -1.839939
     30          1           0        4.274899    3.578381   -0.664782
     31          1           0        5.780987    2.823598   -0.167543
     32          1           0        5.647276   -2.403885   -1.623970
     33          1           0        6.152250   -2.272114    0.052617
     34          1           0        4.777809   -3.278801   -0.375207
     35          6           0        3.151414   -1.252659   -1.422893
     36          8           0        2.709521   -2.307313   -1.863880
     37          1           0        3.176249    1.690179   -2.422959
     38          7           0        2.553315   -0.113793   -1.812585
     39          1           0        2.040555    1.836783   -1.097797
     40          1           0        1.788660   -0.283518   -2.446007
     41          1           0        2.499678    1.048857    3.491877
     42          1           0        2.516503   -0.701624    3.521294
     43          1           0        4.033117    0.189266    3.490357
     44          6           0       -4.124840    1.098470   -0.344499
     45          8           0       -4.142667    2.274689   -0.719123
     46          6           0       -7.869044   -0.968166    0.079931
     47          6           0       -6.789099   -1.342881    0.874748
     48          6           0       -5.569844   -0.683692    0.740189
     49          6           0       -5.417479    0.341709   -0.206475
     50          6           0       -6.524954    0.728666   -0.975497
     51          6           0       -7.743594    0.068720   -0.840469
     52          1           0       -8.816302   -1.476830    0.187354
     53          1           0       -6.900120   -2.134818    1.601543
     54          1           0       -4.754079   -0.969954    1.390235
     55          1           0       -6.442971    1.541388   -1.686078
     56          1           0       -8.589250    0.366414   -1.443854
 ---------------------------------------------------------------------

 SCF Done:  E(RM062X) =  -1303.00328461     A.U. after   14 cycles

 The electronic state is 1-A.
 Alpha  occ. eigenvalues --  -19.73371 -19.63490 -19.59141 -14.77685 -14.77145
 Alpha  occ. eigenvalues --  -10.66559 -10.64755 -10.63978 -10.62288 -10.59242
 Alpha  occ. eigenvalues --  -10.58940 -10.58714 -10.57477 -10.57250 -10.57249
 Alpha  occ. eigenvalues --  -10.57155 -10.57047 -10.56919 -10.56833 -10.56431
 Alpha  occ. eigenvalues --  -10.56132 -10.56105 -10.55851 -10.55764 -10.55746
 Alpha  occ. eigenvalues --  -10.55383 -10.54904 -10.54783 -10.54119 -10.53414
 Alpha  occ. eigenvalues --   -1.27251  -1.15613  -1.14622  -1.04927  -1.02422
 Alpha  occ. eigenvalues --   -0.97340  -0.96716  -0.95250  -0.90570  -0.89061
 Alpha  occ. eigenvalues --   -0.87332  -0.85579  -0.85006  -0.84175  -0.79059
 Alpha  occ. eigenvalues --   -0.78307  -0.77795  -0.77316  -0.76205  -0.72363
 Alpha  occ. eigenvalues --   -0.71140  -0.70827  -0.69905  -0.69294  -0.65680
 Alpha  occ. eigenvalues --   -0.65043  -0.64551  -0.61075  -0.60293  -0.58957
 Alpha  occ. eigenvalues --   -0.57963  -0.57221  -0.56631  -0.55689  -0.55271
 Alpha  occ. eigenvalues --   -0.53612  -0.53334  -0.52605  -0.52225  -0.52048
 Alpha  occ. eigenvalues --   -0.51525  -0.50863  -0.50357  -0.49565  -0.48995
 Alpha  occ. eigenvalues --   -0.48577  -0.48317  -0.47193  -0.46910  -0.46633
 Alpha  occ. eigenvalues --   -0.46272  -0.45781  -0.45597  -0.45009  -0.44209
 Alpha  occ. eigenvalues --   -0.43741  -0.43242  -0.43104  -0.42752  -0.42297
 Alpha  occ. eigenvalues --   -0.42003  -0.41835  -0.40808  -0.40622  -0.39967
 Alpha  occ. eigenvalues --   -0.38881  -0.38826  -0.37159  -0.36268  -0.35237
 Alpha  occ. eigenvalues --   -0.33051  -0.31306  -0.31019  -0.30754  -0.30289
 Alpha  occ. eigenvalues --   -0.29880  -0.28908
 Alpha virt. eigenvalues --   -0.03132  -0.00145   0.02305   0.02898   0.06719
 Alpha virt. eigenvalues --    0.08247   0.10478   0.10611   0.13609   0.13897
 Alpha virt. eigenvalues --    0.13970   0.14698   0.15510   0.15724   0.16875

 Mulliken charges:
               1
     1  C    0.318662
     2  C    0.207336
     3  C   -0.200051
     4  C    0.002940
     5  C   -0.217700
     6  C   -0.195010
     7  O   -0.511904
     8  N   -0.534481
     9  H    0.204404
    10  H    0.192289
    11  H    0.208019
    12  C    0.521351
    13  C   -0.053519
    14  C   -0.290921
    15  C    0.004243
    16  C   -0.295828
    17  C   -0.061203
    18  C   -0.304188
    19  H    0.157751
    20  H    0.176760
    21  C   -0.488392
    22  C   -0.144345
    23  H    0.163466
    24  H    0.156029
    25  C   -0.480783
    26  H    0.159450
    27  H    0.187189
    28  C   -0.482610
    29  H    0.167264
    30  H    0.169334
    31  H    0.165883
    32  H    0.170212
    33  H    0.155733
    34  H    0.180188
    35  C    0.612716
    36  O   -0.574881
    37  H    0.173256
    38  N   -0.654197
    39  H    0.196369
    40  H    0.362142
    41  H    0.183892
    42  H    0.175263
    43  H    0.174846
    44  C    0.363634
    45  O   -0.486513
    46  C   -0.159858
    47  C   -0.171781
    48  C   -0.192215
    49  C    0.014097
    50  C   -0.176218
    51  C   -0.171844
    52  H    0.179542
    53  H    0.181074
    54  H    0.186992
    55  H    0.193819
    56  H    0.182297
 Sum of Mulliken charges =  -0.00000

 Dipole moment (field-independent basis, Debye):
    X=              1.5023    Y=             -0.4120    Z=              2.0817  Tot=              2.6000
 Quadrupole moment (field-independent basis, Debye-Ang):
   XX=           -139.3853   YY=           -186.2932   ZZ=           -172.7409
   XY=             26.3201   XZ=              5.7427   YZ=            -10.2409

  Exact polarizability:     423.313      11.310     285.841      39.561     -18.489     220.310
 Approx polarizability:     395.065       7.504     356.997      44.396     -22.271     257.114

 ******    1 imaginary frequencies (negative Signs) ******

                      1                      2                      3
                      A                      A                      A
 Frequencies --    -55.5385                 4.7385                32.5980
 Red. masses --      4.4322                 1.7620                 5.6250
 Frc consts  --      0.0081                 0.0000                 0.0035
 IR Inten    --      0.2868                 0.6753                 0.4507

                      4                      5                      6
                      A                      A                      A
 Frequencies --     39.4345                48.7988                63.7425
 Red. masses --      3.3188                 5.1689                 2.2182
 Frc consts  --      0.0030                 0.0073                 0.0053
 IR Inten    --      0.5873                 1.2000                 0.7825

                      7                      8                      9
                      A                      A                      A
 Frequencies --     68.2627                92.2209               101.8737
 Red. masses --      3.1248                 1.2144                 4.9867
 Frc consts  --      0.0086                 0.0061                 0.0305
 IR Inten    --      1.2087                 0.6171                 2.9444

                     10                     11                     12
                      A                      A                      A
 Frequencies --    105.6109               132.0068               147.5003
 Red. masses --      4.9797                 1.1715                 4.4708
 Frc consts  --      0.0327                 0.0120                 0.0573
 IR Inten    --      1.1218                 0.4240                 0.4994

                     13                     14                     15
                      A                      A                      A
 Frequencies --    154.3284               174.2241               194.3475
 Red. masses --      5.1493                 5.0716                 4.2447
 Frc consts  --      0.0723                 0.0907                 0.0945
 IR Inten    --      0.3485                 5.1983                 0.0308

                     16                     17                     18
                      A                      A                      A
 Frequencies --    212.5066               230.1631               245.2284
 Red. masses --      2.6038                 3.5018                 3.7014
 Frc consts  --      0.0693                 0.1093                 0.1311
 IR Inten    --      2.5445                 1.0571                 1.1657

                     19                     20                     21
                      A                      A                      A
 Frequencies --    254.8016               259.4584               262.2756
 Red. masses --      2.9439                 2.9266                 2.6233
 Frc consts  --      0.1126                 0.1161                 0.1063
 IR Inten    --      0.9889                 0.3627                 1.8408

                     22                     23                     24
                      A                      A                      A
 Frequencies --    273.5693               292.7818               306.2402
 Red. masses --      2.4554                 3.3134                 3.4177
 Frc consts  --      0.1083                 0.1673                 0.1888
 IR Inten    --      1.1521                 0.4136                 8.7273

                     25                     26                     27
                      A                      A                      A
 Frequencies --    322.8951               333.5327               358.8721
 Red. masses --      3.2159                 3.1225                 5.9673
 Frc consts  --      0.1975                 0.2047                 0.4528
 IR Inten    --      7.3547                 1.3807                 2.4806

                     28                     29                     30
                      A                      A                      A
 Frequencies --    383.6103               396.6028               410.4009
 Red. masses --      5.2557                 4.7385                 2.0520
 Frc consts  --      0.4557                 0.4391                 0.2036
 IR Inten    --      6.3091                 2.6881                 0.8691

                     31                     32                     33
                      A                      A                      A
 Frequencies --    418.3183               434.0498               440.7090
 Red. masses --      2.8981                 2.7309                 4.4462
 Frc consts  --      0.2988                 0.3031                 0.5088
 IR Inten    --      1.3442                11.1344                 7.0336

                     34                     35                     36
                      A                      A                      A
 Frequencies --    448.7606               466.6104               477.8125
 Red. masses --      2.7876                 3.7228                 3.3726
 Frc consts  --      0.3308                 0.4776                 0.4537
 IR Inten    --      0.4144                 1.6031                 5.7953

                     37                     38                     39
                      A                      A                      A
 Frequencies --    494.0831               529.3374               544.0518
 Red. masses --      2.9933                 1.4390                 4.5921
 Frc consts  --      0.4305                 0.2376                 0.8008
 IR Inten    --     12.1215               101.4298                 3.6714

                     40                     41                     42
                      A                      A                      A
 Frequencies --    555.2997               569.3595               592.9629
 Red. masses --      3.9696                 4.1579                 4.5842
 Frc consts  --      0.7212                 0.7941                 0.9497
 IR Inten    --     11.3254                 6.6691                13.7878

                     43                     44                     45
                      A                      A                      A
 Frequencies --    625.5604               626.0991               641.3658
 Red. masses --      3.8908                 6.2832                 4.0479
 Frc consts  --      0.8971                 1.4512                 0.9810
 IR Inten    --      2.2824                 1.1305                 1.6723

                     46                     47                     48
                      A                      A                      A
 Frequencies --    657.1507               658.2955               702.6281
 Red. masses --      4.2401                 7.6078                 1.6043
 Frc consts  --      1.0788                 1.9425                 0.4666
 IR Inten    --      0.2938                56.0178                47.4712

                     49                     50                     51
                      A                      A                      A
 Frequencies --    719.7530               730.5320               738.3159
 Red. masses --      3.7556                 3.6944                 3.7998
 Frc consts  --      1.1463                 1.1616                 1.2204
 IR Inten    --     24.8095                10.1141                29.5460

                     52                     53                     54
                      A                      A                      A
 Frequencies --    766.7978               768.8059               783.5040
 Red. masses --      5.0920                 3.9072                 6.4848
 Frc consts  --      1.7640                 1.3607                 2.3455
 IR Inten    --     34.7751                 2.7284                 1.5330

                     55                     56                     57
                      A                      A                      A
 Frequencies --    810.9346               814.5273               834.3919
 Red. masses --      3.3243                 2.6126                 3.6100
 Frc consts  --      1.2880                 1.0212                 1.4808
 IR Inten    --      4.7474                13.0381                42.9587

                     58                     59                     60
                      A                      A                      A
 Frequencies --    849.3301               850.5764               862.7359
 Red. masses --      2.2217                 2.0378                 1.2680
 Frc consts  --      0.9442                 0.8686                 0.5561
 IR Inten    --      4.2455                10.4507                 1.8961

                     61                     62                     63
                      A                      A                      A
 Frequencies --    865.8273               876.1532               896.7992
 Red. masses --      2.8219                 2.2677                 1.9553
 Frc consts  --      1.2464                 1.0257                 0.9265
 IR Inten    --      7.1535                 1.5643                 1.5406

                     64                     65                     66
                      A                      A                      A
 Frequencies --    902.6135               910.2361               921.1674
 Red. masses --      3.1925                 2.0866                 1.9374
 Frc consts  --      1.5325                 1.0186                 0.9686
 IR Inten    --     42.8324                 9.9023                 0.3655

                     67                     68                     69
                      A                      A                      A
 Frequencies --    926.1905               958.4073               962.2136
 Red. masses --      1.8864                 1.5343                 5.2955
 Frc consts  --      0.9534                 0.8303                 2.8887
 IR Inten    --     22.9313                 3.6521                 2.6929

                     70                     71                     72
                      A                      A                      A
 Frequencies --    974.6402               976.5376               986.1385
 Red. masses --      1.6025                 1.3183                 1.6310
 Frc consts  --      0.8969                 0.7407                 0.9345
 IR Inten    --      2.4705                 1.1732                 1.2668

                     73                     74                     75
                      A                      A                      A
 Frequencies --    992.9277               993.9060               997.7076
 Red. masses --      1.5154                 1.3817                 2.3961
 Frc consts  --      0.8802                 0.8042                 1.4053
 IR Inten    --      2.3288                 1.7714                15.0345

                     76                     77                     78
                      A                      A                      A
 Frequencies --   1000.2516              1016.4776              1018.2029
 Red. masses --      1.7271                 1.3184                 4.8903
 Frc consts  --      1.0181                 0.8026                 2.9872
 IR Inten    --      0.7675                 0.7030                 0.7920

                     79                     80                     81
                      A                      A                      A
 Frequencies --   1058.2023              1064.4917              1073.3958
 Red. masses --      2.3622                 2.1282                 2.7166
 Frc consts  --      1.5585                 1.4208                 1.8442
 IR Inten    --     16.1223                 4.3953                18.8719

                     82                     83                     84
                      A                      A                      A
 Frequencies --   1080.4333              1092.3051              1110.9704
 Red. masses --      1.9819                 1.9515                 1.7281
 Frc consts  --      1.3631                 1.3719                 1.2567
 IR Inten    --      9.7381                 2.2950                46.6815

                     85                     86                     87
                      A                      A                      A
 Frequencies --   1116.1035              1127.1203              1143.4445
 Red. masses --      1.4783                 1.5950                 2.4192
 Frc consts  --      1.0850                 1.1939                 1.8636
 IR Inten    --      4.6603                 2.1166                 8.1445

                     88                     89                     90
                      A                      A                      A
 Frequencies --   1145.0411              1181.7297              1184.4570
 Red. masses --      1.4317                 1.1044                 5.0834
 Frc consts  --      1.1060                 0.9087                 4.2019
 IR Inten    --     38.8889                 0.5720                 1.1397

                     91                     92                     93
                      A                      A                      A
 Frequencies --   1194.8996              1202.1218              1223.8605
 Red. masses --      2.8609                 1.1425                 2.1482
 Frc consts  --      2.4066                 0.9727                 1.8958
 IR Inten    --    118.6806                11.8837                 5.6566

                     94                     95                     96
                      A                      A                      A
 Frequencies --   1231.1540              1239.9129              1250.7507
 Red. masses --      2.8484                 1.9344                 2.8199
 Frc consts  --      2.5438                 1.7522                 2.5991
 IR Inten    --     21.0487                12.1639                 9.8716

                     97                     98                     99
                      A                      A                      A
 Frequencies --   1276.3093              1285.9361              1294.7059
 Red. masses --      2.0062                 1.8561                 2.1243
 Frc consts  --      1.9255                 1.8084                 2.0980
 IR Inten    --     85.3552               101.8557                34.1989

                    100                    101                    102
                      A                      A                      A
 Frequencies --   1309.6377              1314.8320              1327.7242
 Red. masses --      2.1772                 1.7937                 1.7497
 Frc consts  --      2.2001                 1.8270                 1.8173
 IR Inten    --     83.2086                24.7461                44.8840

                    103                    104                    105
                      A                      A                      A
 Frequencies --   1332.2964              1340.2327              1343.8661
 Red. masses --      2.4088                 1.7700                 2.6290
 Frc consts  --      2.5191                 1.8732                 2.7974
 IR Inten    --     19.3742                34.6732               169.9972

                    106                    107                    108
                      A                      A                      A
 Frequencies --   1349.6069              1356.2792              1366.6337
 Red. masses --      1.9621                 2.4909                 1.7825
 Frc consts  --      2.1057                 2.6996                 1.9614
 IR Inten    --      7.0694                29.8199                13.4573

                    109                    110                    111
                      A                      A                      A
 Frequencies --   1372.2433              1394.0093              1403.4317
 Red. masses --      4.3008                 1.6743                 1.6677
 Frc consts  --      4.7716                 1.9170                 1.9353
 IR Inten    --      7.6843                 1.7513                29.7508

                    112                    113                    114
                      A                      A                      A
 Frequencies --   1424.5263              1426.9930              1429.3559
 Red. masses --      1.2338                 1.2464                 1.2349
 Frc consts  --      1.4752                 1.4954                 1.4865
 IR Inten    --      4.5624                10.8821                 4.0879

                    115                    116                    117
                      A                      A                      A
 Frequencies --   1489.9897              1492.4596              1493.8156
 Red. masses --      1.0824                 2.8060                 1.1828
 Frc consts  --      1.4158                 3.6825                 1.5551
 IR Inten    --      7.6117                20.4467                16.5288

                    118                    119                    120
                      A                      A                      A
 Frequencies --   1495.4754              1508.0047              1512.9539
 Red. masses --      3.3935                 1.1618                 1.5974
 Frc consts  --      4.4715                 1.5566                 2.1544
 IR Inten    --    239.0476                 1.1727                 4.4685

                    121                    122                    123
                      A                      A                      A
 Frequencies --   1513.2939              1515.0131              1517.3620
 Red. masses --      1.1465                 1.1941                 1.1280
 Frc consts  --      1.5469                 1.6149                 1.5302
 IR Inten    --      5.1600                20.9625                 1.8013

                    124                    125                    126
                      A                      A                      A
 Frequencies --   1518.6453              1520.4290              1521.3716
 Red. masses --      1.0561                 1.2666                 1.5407
 Frc consts  --      1.4351                 1.7252                 2.1011
 IR Inten    --      7.1810                 3.5995                18.9496

                    127                    128                    129
                      A                      A                      A
 Frequencies --   1529.6869              1540.4448              1542.9772
 Red. masses --      1.2400                 2.0740                 2.4368
 Frc consts  --      1.7096                 2.8996                 3.4182
 IR Inten    --     13.6577                64.5450                 3.5613

                    130                    131                    132
                      A                      A                      A
 Frequencies --   1571.5937              1661.3117              1665.1889
 Red. masses --      1.9827                 7.7441                 6.2093
 Frc consts  --      2.8853                12.5928                10.1442
 IR Inten    --     87.5259                 9.3570                21.5788

                    133                    134                    135
                      A                      A                      A
 Frequencies --   1678.1194              1681.7728              1719.8947
 Red. masses --      7.8992                 6.2278                11.8879
 Frc consts  --     13.1062                10.3781                20.7185
 IR Inten    --     32.4045                25.0029               204.3750

                    136                    137                    138
                      A                      A                      A
 Frequencies --   1799.4644              3113.6079              3116.6225
 Red. masses --      8.6263                 1.0603                 1.0439
 Frc consts  --     16.4575                 6.0563                 5.9743
 IR Inten    --    459.0825                20.7944                43.6667

                    139                    140                    141
                      A                      A                      A
 Frequencies --   3116.9413              3117.8003              3122.1951
 Red. masses --      1.0374                 1.0383                 1.0592
 Frc consts  --      5.9379                 5.9468                 6.0837
 IR Inten    --     13.6406                18.5921                52.8384

                    142                    143                    144
                      A                      A                      A
 Frequencies --   3128.5057              3132.1248              3161.6891
 Red. masses --      1.0613                 1.0621                 1.1031
 Frc consts  --      6.1199                 6.1387                 6.4971
 IR Inten    --     26.6504                39.1941                15.7507

                    145                    146                    147
                      A                      A                      A
 Frequencies --   3167.7644              3168.8486              3174.0042
 Red. masses --      1.1027                 1.1031                 1.0987
 Frc consts  --      6.5196                 6.5265                 6.5212
 IR Inten    --      4.6466                26.0128                18.0026

                    148                    149                    150
                      A                      A                      A
 Frequencies --   3187.7894              3188.9783              3189.7114
 Red. masses --      1.1017                 1.1023                 1.1022
 Frc consts  --      6.5959                 6.6048                 6.6069
 IR Inten    --     14.3105                16.9596                32.6149

                    151                    152                    153
                      A                      A                      A
 Frequencies --   3191.4177              3194.3352              3197.3151
 Red. masses --      1.1022                 1.1021                 1.1031
 Frc consts  --      6.6144                 6.6259                 6.6438
 IR Inten    --     23.3369                27.0796                38.2490

                    154                    155                    156
                      A                      A                      A
 Frequencies --   3254.8205              3267.8666              3272.2502
 Red. masses --      1.0902                 1.0872                 1.0882
 Frc consts  --      6.8049                 6.8406                 6.8653
 IR Inten    --      1.8492                 0.1990                 1.0023

                    157                    158                    159
                      A                      A                      A
 Frequencies --   3278.8370              3287.3398              3290.1186
 Red. masses --      1.0909                 1.0947                 1.0916
 Frc consts  --      6.9098                 6.9700                 6.9622
 IR Inten    --      5.7246                17.6141                 0.5896

                    160                    161                    162
                      A                      A                      A
 Frequencies --   3295.3427              3299.2597              3690.1109
 Red. masses --      1.0985                 1.0941                 1.0763
 Frc consts  --      7.0280                 7.0168                 8.6346
 IR Inten    --     18.2679                 0.1364                40.4342

 - Thermochemistry -
 -------------------
 Temperature   298.150 Kelvin.  Pressure   1.00000 Atm.
 Atom     1 has atomic number  6 and mass  12.00000

 Molecular mass:   402.19434 amu.
 Principal axes and moments of inertia in atomic units:
                           1         2         3
     Eigenvalues --  4380.11376********************
           X            0.99998   0.00663   0.00143
           Y           -0.00652   0.99802  -0.06248
           Z           -0.00184   0.06247   0.99805
 This molecule is an asymmetric top.
 Rotational symmetry number  1.
 Warning -- assumption of classical behavior for rotation
           may cause significant error
 Rotational temperatures (Kelvin)      0.01977     0.00323     0.00315
 Rotational constants (GHZ):           0.41203     0.06726     0.06565
    1 imaginary frequencies ignored.
 Zero-point vibrational energy    1230093.4 (Joules/Mol)
                                  293.99939 (Kcal/Mol)
 Warning -- explicit consideration of  41 degrees of freedom as
           vibrations may cause significant error
 Vibrational temperatures:      6.82    46.90    56.74    70.21    91.71
          (Kelvin)             98.21   132.69   146.57   151.95   189.93
                              212.22   222.04   250.67   279.62   305.75
                              331.15   352.83   366.60   373.30   377.36
                              393.61   421.25   440.61   464.57   479.88
                              516.34   551.93   570.62   590.48   601.87
                              624.50   634.08   645.67   671.35   687.47
                              710.88   761.60   782.77   798.95   819.18
                              853.14   900.04   900.82   922.78   945.49
                              947.14  1010.93  1035.56  1051.07  1062.27
                             1103.25  1106.14  1127.29  1166.75  1171.92
                             1200.50  1222.00  1223.79  1241.28  1245.73
                             1260.59  1290.29  1298.66  1309.63  1325.35
                             1332.58  1378.93  1384.41  1402.29  1405.02
                             1418.83  1428.60  1430.01  1435.48  1439.14
                             1462.48  1464.97  1522.52  1531.57  1544.38
                             1554.50  1571.58  1598.44  1605.82  1621.67
                             1645.16  1647.46  1700.25  1704.17  1719.19
                             1729.59  1760.86  1771.36  1783.96  1799.55
                             1836.32  1850.18  1862.79  1884.28  1891.75
                             1910.30  1916.88  1928.30  1933.52  1941.78
                             1951.38  1966.28  1974.35  2005.67  2019.23
                             2049.58  2053.12  2056.52  2143.76  2147.32
                             2149.27  2151.66  2169.68  2176.80  2177.29
                             2179.77  2183.15  2184.99  2187.56  2188.91
                             2200.88  2216.36  2220.00  2261.17  2390.26
                             2395.84  2414.44  2419.70  2474.54  2589.03
                             4479.79  4484.12  4484.58  4485.82  4492.14
                             4501.22  4506.43  4548.97  4557.71  4559.27
                             4566.68  4586.52  4588.23  4589.28  4591.74
                             4595.94  4600.22  4682.96  4701.73  4708.04
                             4717.52  4729.75  4733.75  4741.26  4746.90
                             5309.25

 Zero-point correction=                           0.468518 (Hartree/Particle)
 Thermal correction to Energy=                    0.494081
 Thermal correction to Enthalpy=                  0.495025
 Thermal correction to Gibbs Free Energy=         0.411601
 Sum of electronic and zero-point Energies=          -1302.534767
 Sum of electronic and thermal Energies=             -1302.509204
 Sum of electronic and thermal Enthalpies=           -1302.508260
 Sum of electronic and thermal Free Energies=        -1302.591684

                     E (Thermal)             CV                S
                      KCal/Mol        Cal/Mol-Kelvin    Cal/Mol-Kelvin
 Total                  310.040            102.417            175.581
 Electronic               0.000              0.000              0.000
 Translational            0.889              2.981             43.867
 Rotational               0.889              2.981             36.422
 Vibrational            308.263             96.455             95.292
 Vibration     1          0.593              1.987              9.495
 Vibration     2          0.594              1.983              5.665
 Vibration     3          0.594              1.981              5.287
 Vibration     4          0.595              1.978              4.865
 Vibration     5          0.597              1.972              4.338
 Vibration     6          0.598              1.969              4.203
 Vibration     7          0.602              1.955              3.612
 Vibration     8          0.604              1.948              3.418
 Vibration     9          0.605              1.945              3.348
 Vibration    10          0.612              1.921              2.917
 Vibration    11          0.617              1.905              2.704
 Vibration    12          0.620              1.898              2.618
 Vibration    13          0.627              1.874              2.389
 Vibration    14          0.635              1.848              2.186
 Vibration    15          0.644              1.822              2.022
 Vibration    16          0.652              1.795              1.878
 Vibration    17          0.660              1.771              1.765
 Vibration    18          0.665              1.755              1.697
 Vibration    19          0.668              1.747              1.665
 Vibration    20          0.670              1.742              1.647
 Vibration    21          0.676              1.722              1.574
 Vibration    22          0.688              1.687              1.458
 Vibration    23          0.697              1.662              1.383
 Vibration    24          0.708              1.630              1.295
 Vibration    25          0.715              1.609              1.243
 Vibration    26          0.734              1.557              1.127
 Vibration    27          0.753              1.505              1.025
 Vibration    28          0.763              1.477              0.975
 Vibration    29          0.775              1.448              0.925
 Vibration    30          0.781              1.430              0.898
 Vibration    31          0.795              1.396              0.846
 Vibration    32          0.801              1.381              0.824
 Vibration    33          0.808              1.364              0.800
 Vibration    34          0.824              1.324              0.747
 Vibration    35          0.834              1.299              0.716
 Vibration    36          0.850              1.263              0.673
 Vibration    37          0.884              1.185              0.589
 Vibration    38          0.899              1.153              0.557
 Vibration    39          0.911              1.128              0.533
 Vibration    40          0.925              1.098              0.505
 Vibration    41          0.951              1.047              0.462

 Normal termination of Gaussian 16 at Sat Dec  9 19:07:22 2023.
