 Gaussian 16, Revision C.01,
 Gaussian 16:  ES64L-G16RevC.01  3-Jul-2019

 -----------------------------------------------------------
 # m062x 6-31g(d) scrf=(iefpcm,solvent=benzene) freq=noraman
 -----------------------------------------------------------

 ----------
 Structure1
 ----------
 Symbolic Z-matrix:
 Charge =  0 Multiplicity = 1

                         Standard orientation:
 ---------------------------------------------------------------------
 Center     Atomic      Atomic             Coordinates (Angstroms)
 Number     Number       Type             X           Y           Z
 ---------------------------------------------------------------------
      1          6           0       -1.080706    0.988143   -0.265389
      2          6           0       -2.403246    1.324135    0.045826
      3          6           0       -3.339119    0.299908    0.233992
      4          6           0       -2.965771   -1.045064    0.117517
      5          6           0       -1.637053   -1.360537   -0.194415
      6          6           0       -0.688765   -0.345209   -0.390450
      7          1           0       -0.351805    1.770387   -0.423445
      8          6           0       -2.816821    2.789395    0.181786
      9          1           0       -4.365365    0.551235    0.469849
     10          6           0       -3.991474   -2.158522    0.333354
     11          1           0       -1.350763   -2.399641   -0.277864
     12          7           0        0.664427   -0.572932   -0.685892
     13          9           0       -4.502029   -2.510958   -0.845407
     14          9           0       -3.428695   -3.229496    0.894765
     15          9           0       -4.989317   -1.753410    1.121390
     16          9           0       -3.815064    2.930968    1.055101
     17          9           0       -1.794219    3.542946    0.591225
     18          9           0       -3.223303    3.235500   -1.005528
     19          1           0        1.293884    0.227358   -0.652828
     20          6           0        1.263016   -1.682409   -1.138791
     21          8           0        0.692438   -2.716600   -1.461631
     22          7           0        2.581586   -1.558932   -1.316217
     23          1           0        2.931374   -2.281439   -1.924301
     24          6           0        5.306764   -1.482867    1.447006
     25          6           0        4.090509   -1.994712    0.651217
     26          6           0        3.579826   -0.977230   -0.397252
     27          6           0        3.346667    0.451937    0.215413
     28          6           0        4.610789    0.924177    0.982049
     29          6           0        5.065148   -0.090488    2.049136
     30          1           0        6.178572   -1.446362    0.790973
     31          1           0        5.558096   -2.192276    2.237566
     32          1           0        3.279920   -2.224887    1.345439
     33          1           0        4.349637   -2.938660    0.167999
     34          1           0        4.426005   -0.848020   -1.073845
     35          7           0        2.755268    1.443699   -0.705397
     36          1           0        2.589731    0.281692    0.985229
     37          1           0        5.423149    1.112722    0.280041
     38          1           0        4.417816    1.870724    1.485014
     39          1           0        4.307954   -0.160061    2.832598
     40          1           0        5.973286    0.264736    2.539333
     41          6           0        2.329971    2.679392   -0.041356
     42          6           0        3.586286    1.755550   -1.871749
     43          1           0        1.734655    3.294833   -0.718485
     44          1           0        1.707809    2.467049    0.830013
     45          1           0        3.175834    3.284997    0.288613
     46          1           0        3.064571    2.434739   -2.548675
     47          1           0        4.528723    2.227743   -1.589531
     48          1           0        3.815944    0.859531   -2.449361
 ---------------------------------------------------------------------

 SCF Done:  E(RM062X) =  -1498.45228222     A.U. after   13 cycles

 The electronic state is 1-A.
 Alpha  occ. eigenvalues --  -25.29260 -25.29104 -25.28754 -25.28624 -25.28593
 Alpha  occ. eigenvalues --  -25.28139 -19.59124 -14.78459 -14.77849 -14.77239
 Alpha  occ. eigenvalues --  -10.80653 -10.80238 -10.66756 -10.61615 -10.60314
 Alpha  occ. eigenvalues --  -10.59855 -10.58664 -10.58454 -10.57705 -10.57371
 Alpha  occ. eigenvalues --  -10.57270 -10.57246 -10.56825 -10.55334 -10.55135
 Alpha  occ. eigenvalues --  -10.54979 -10.54832  -1.46377  -1.45907  -1.37169
 Alpha  occ. eigenvalues --   -1.36915  -1.36664  -1.36449  -1.17084  -1.06140
 Alpha  occ. eigenvalues --   -1.04448  -1.02384  -0.97653  -0.92898  -0.89945
 Alpha  occ. eigenvalues --   -0.87155  -0.84622  -0.84218  -0.81209  -0.80842
 Alpha  occ. eigenvalues --   -0.80184  -0.75788  -0.74141  -0.72972  -0.71849
 Alpha  occ. eigenvalues --   -0.70332  -0.68792  -0.68745  -0.68277  -0.68189
 Alpha  occ. eigenvalues --   -0.67587  -0.65680  -0.64790  -0.61864  -0.60543
 Alpha  occ. eigenvalues --   -0.59020  -0.58666  -0.56954  -0.56493  -0.56442
 Alpha  occ. eigenvalues --   -0.56246  -0.55966  -0.55586  -0.54438  -0.54144
 Alpha  occ. eigenvalues --   -0.53373  -0.52712  -0.52224  -0.52173  -0.51705
 Alpha  occ. eigenvalues --   -0.51045  -0.50989  -0.50835  -0.50484  -0.49992
 Alpha  occ. eigenvalues --   -0.49841  -0.48673  -0.47754  -0.47373  -0.46966
 Alpha  occ. eigenvalues --   -0.46482  -0.46048  -0.44978  -0.44202  -0.44080
 Alpha  occ. eigenvalues --   -0.43540  -0.41974  -0.41817  -0.40738  -0.40083
 Alpha  occ. eigenvalues --   -0.38992  -0.37608  -0.37396  -0.33825  -0.32697
 Alpha  occ. eigenvalues --   -0.30491  -0.29526  -0.27623
 Alpha virt. eigenvalues --    0.00045   0.01332   0.09646   0.10603   0.11831
 Alpha virt. eigenvalues --    0.12318   0.13875   0.15066   0.17000   0.17235
 Alpha virt. eigenvalues --    0.17827   0.18138   0.18327   0.18601   0.18723

 Mulliken charges:
               1
     1  C   -0.245031
     2  C   -0.068247
     3  C   -0.221361
     4  C   -0.079500
     5  C   -0.190417
     6  C    0.347781
     7  H    0.192142
     8  C    0.838192
     9  H    0.200466
    10  C    0.841335
    11  H    0.226333
    12  N   -0.798413
    13  F   -0.263875
    14  F   -0.271189
    15  F   -0.274157
    16  F   -0.272000
    17  F   -0.275648
    18  F   -0.264228
    19  H    0.429161
    20  C    0.755074
    21  O   -0.577148
    22  N   -0.674191
    23  H    0.366390
    24  C   -0.307976
    25  C   -0.291473
    26  C    0.002124
    27  C   -0.009454
    28  C   -0.315955
    29  C   -0.306406
    30  H    0.154625
    31  H    0.169245
    32  H    0.162650
    33  H    0.168496
    34  H    0.154644
    35  N   -0.477529
    36  H    0.154203
    37  H    0.159316
    38  H    0.171498
    39  H    0.158901
    40  H    0.167145
    41  C   -0.341002
    42  C   -0.341762
    43  H    0.186307
    44  H    0.176334
    45  H    0.162664
    46  H    0.183451
    47  H    0.153535
    48  H    0.184950
 Sum of Mulliken charges =  -0.00000

 Dipole moment (field-independent basis, Debye):
    X=              8.1030    Y=              3.5253    Z=              1.2286  Tot=              8.9217
 Quadrupole moment (field-independent basis, Debye-Ang):
   XX=           -139.1654   YY=           -165.2217   ZZ=           -155.5950
   XY=             -0.7708   XZ=             -1.2572   YZ=             -5.1722

  Exact polarizability:     273.481      -4.256     236.762     -10.041       5.467     158.055
 Approx polarizability:     269.750      -0.571     258.876     -18.962       8.745     183.398

 ******    6 imaginary frequencies (negative Signs) ******

                      1                      2                      3
                      A                      A                      A
 Frequencies --   -114.1795              -104.9633               -55.5159
 Red. masses --      1.2943                 8.9196                 6.5443
 Frc consts  --      0.0099                 0.0579                 0.0119
 IR Inten    --      0.0220                 2.5939                 2.9006

                      4                      5                      6
                      A                      A                      A
 Frequencies --    -43.9761               -42.7363               -15.8435
 Red. masses --     16.4039                17.9872                 3.5110
 Frc consts  --      0.0187                 0.0194                 0.0005
 IR Inten    --      0.0256                 0.0238                 1.1008

                      7                      8                      9
                      A                      A                      A
 Frequencies --     21.0808                35.7349                80.4277
 Red. masses --      3.6127                 6.8239                 3.0708
 Frc consts  --      0.0009                 0.0051                 0.0117
 IR Inten    --      0.4925                 1.0773                 0.1549

                     10                     11                     12
                      A                      A                      A
 Frequencies --     84.2756               101.5828               106.3765
 Red. masses --      6.6356                 2.2971                 7.4498
 Frc consts  --      0.0278                 0.0140                 0.0497
 IR Inten    --      0.7460                 0.3199                 1.4153

                     13                     14                     15
                      A                      A                      A
 Frequencies --    122.6882               139.7194               152.2454
 Red. masses --      2.8932                 2.5728                 5.3022
 Frc consts  --      0.0257                 0.0296                 0.0724
 IR Inten    --      2.9084                 0.6784                 0.4700

                     16                     17                     18
                      A                      A                      A
 Frequencies --    164.2545               176.7576               201.7808
 Red. masses --      1.9698                 2.7446                 9.0642
 Frc consts  --      0.0313                 0.0505                 0.2174
 IR Inten    --      0.8442                 3.3463                 5.6187

                     19                     20                     21
                      A                      A                      A
 Frequencies --    246.0914               250.8317               269.4993
 Red. masses --      3.7208                 3.0141                 3.3795
 Frc consts  --      0.1328                 0.1117                 0.1446
 IR Inten    --      0.4348                 1.2102                 0.4495

                     22                     23                     24
                      A                      A                      A
 Frequencies --    274.0275               281.0975               285.2561
 Red. masses --      9.2622                 3.8334                 2.4353
 Frc consts  --      0.4098                 0.1785                 0.1168
 IR Inten    --      2.1765                 4.8087                 0.4140

                     25                     26                     27
                      A                      A                      A
 Frequencies --    313.5417               337.5763               361.0084
 Red. masses --      5.3019                 4.7014                 9.1172
 Frc consts  --      0.3071                 0.3157                 0.7001
 IR Inten    --      0.8096                 2.2784                 0.9380

                     28                     29                     30
                      A                      A                      A
 Frequencies --    368.1670               393.8466               398.5840
 Red. masses --      5.7283                 3.5649                 4.4826
 Frc consts  --      0.4575                 0.3258                 0.4196
 IR Inten    --      3.6705                 4.5342                 5.8700

                     31                     32                     33
                      A                      A                      A
 Frequencies --    412.5030               429.2465               441.9955
 Red. masses --      3.6900                 2.6844                 2.7589
 Frc consts  --      0.3699                 0.2914                 0.3176
 IR Inten    --      5.7483                 2.3890                38.2725

                     34                     35                     36
                      A                      A                      A
 Frequencies --    456.5819               463.5629               500.0743
 Red. masses --      2.4854                 2.9576                 1.7546
 Frc consts  --      0.3053                 0.3745                 0.2585
 IR Inten    --      7.3956                17.4990                73.8304

                     37                     38                     39
                      A                      A                      A
 Frequencies --    511.1180               519.7696               534.1203
 Red. masses --     11.5243                 4.4398                11.2961
 Frc consts  --      1.7738                 0.7067                 1.8987
 IR Inten    --      0.7389                36.1475                 2.8685

                     40                     41                     42
                      A                      A                      A
 Frequencies --    554.8567               575.0601               610.6590
 Red. masses --      2.5959                13.1741                 8.1282
 Frc consts  --      0.4709                 2.5668                 1.7858
 IR Inten    --      3.5223                 2.9228                 0.8602

                     43                     44                     45
                      A                      A                      A
 Frequencies --    640.7678               686.9008               693.3487
 Red. masses --      4.5706                10.0047                 4.9841
 Frc consts  --      1.1057                 2.7813                 1.4117
 IR Inten    --      1.1825                65.8489                 5.6167

                     46                     47                     48
                      A                      A                      A
 Frequencies --    701.5134               703.7960               719.5529
 Red. masses --      5.6524                 4.8636                 2.4279
 Frc consts  --      1.6389                 1.4194                 0.7407
 IR Inten    --     16.4541                64.3020                15.3173

                     49                     50                     51
                      A                      A                      A
 Frequencies --    744.5221               750.6975               775.0190
 Red. masses --      2.3874                 3.5005                 3.2043
 Frc consts  --      0.7797                 1.1623                 1.1340
 IR Inten    --      0.6773                 5.4461                28.3555

                     52                     53                     54
                      A                      A                      A
 Frequencies --    807.6405               832.4626               846.6447
 Red. masses --      1.6760                 2.9366                 1.9515
 Frc consts  --      0.6441                 1.1990                 0.8242
 IR Inten    --     22.5626                13.7814                 2.2261

                     55                     56                     57
                      A                      A                      A
 Frequencies --    872.5467               876.2847               892.5817
 Red. masses --      3.0177                 3.0342                 1.7916
 Frc consts  --      1.3536                 1.3727                 0.8410
 IR Inten    --     21.4181                 1.5134                39.1723

                     58                     59                     60
                      A                      A                      A
 Frequencies --    894.0595               911.6150               929.8035
 Red. masses --      2.0631                 1.4635                 1.4346
 Frc consts  --      0.9717                 0.7166                 0.7308
 IR Inten    --     10.3613                 8.3966                 6.0101

                     61                     62                     63
                      A                      A                      A
 Frequencies --    944.7478               964.6969               978.0554
 Red. masses --      2.5586                 2.3848                 4.2507
 Frc consts  --      1.3455                 1.3076                 2.3957
 IR Inten    --     18.1793                 2.7840                42.1256

                     64                     65                     66
                      A                      A                      A
 Frequencies --   1012.2498              1033.2158              1050.7170
 Red. masses --      6.1503                 2.5960                 1.5121
 Frc consts  --      3.7130                 1.6328                 0.9836
 IR Inten    --      7.5731                22.7339                11.5273

                     67                     68                     69
                      A                      A                      A
 Frequencies --   1059.3787              1077.9295              1081.6190
 Red. masses --      1.7552                 2.1509                 1.6392
 Frc consts  --      1.1606                 1.4725                 1.1299
 IR Inten    --     19.1721                10.1450                25.3258

                     70                     71                     72
                      A                      A                      A
 Frequencies --   1102.9993              1110.3104              1124.5981
 Red. masses --      1.5374                 1.8511                 1.9713
 Frc consts  --      1.1020                 1.3445                 1.4689
 IR Inten    --      3.2251                 1.3341                 6.4382

                     73                     74                     75
                      A                      A                      A
 Frequencies --   1134.5510              1136.8017              1142.6679
 Red. masses --      2.2240                 2.1060                 1.6982
 Frc consts  --      1.6867                 1.6035                 1.3064
 IR Inten    --     25.5265                 0.8803                33.7709

                     76                     77                     78
                      A                      A                      A
 Frequencies --   1182.9252              1188.4784              1221.0876
 Red. masses --      2.2696                 1.5807                 2.2178
 Frc consts  --      1.8711                 1.3155                 1.9484
 IR Inten    --     27.0583                15.8023                14.7626

                     79                     80                     81
                      A                      A                      A
 Frequencies --   1248.9674              1267.5239              1276.5160
 Red. masses --      1.8121                 3.3341                 1.3498
 Frc consts  --      1.6655                 3.1560                 1.2959
 IR Inten    --      2.9387                74.5074                13.6656

                     82                     83                     84
                      A                      A                      A
 Frequencies --   1285.6440              1291.9955              1293.6650
 Red. masses --      1.7207                 5.8664                 3.5111
 Frc consts  --      1.6757                 5.7696                 3.4621
 IR Inten    --     40.9472               206.2295                91.8366

                     85                     86                     87
                      A                      A                      A
 Frequencies --   1297.5391              1300.9037              1303.4042
 Red. masses --     11.3776                 5.1307                 2.6226
 Frc consts  --     11.2860                 5.1159                 2.6251
 IR Inten    --    581.9460               353.3914                73.2410

                     88                     89                     90
                      A                      A                      A
 Frequencies --   1309.4368              1311.7539              1330.8082
 Red. masses --      4.1075                 2.2919                 1.3883
 Frc consts  --      4.1495                 2.3235                 1.4486
 IR Inten    --    313.4518               156.7375                21.5583

                     91                     92                     93
                      A                      A                      A
 Frequencies --   1345.2236              1355.3251              1361.6320
 Red. masses --      3.0302                 1.4798                 1.3560
 Frc consts  --      3.2308                 1.6015                 1.4813
 IR Inten    --     40.7007                 4.0472                 1.3270

                     94                     95                     96
                      A                      A                      A
 Frequencies --   1373.3707              1376.2746              1391.7841
 Red. masses --      1.3316                 1.3732                 1.5233
 Frc consts  --      1.4798                 1.5325                 1.7385
 IR Inten    --      6.7651                 4.5260                12.4498

                     97                     98                     99
                      A                      A                      A
 Frequencies --   1402.9819              1411.1173              1423.8575
 Red. masses --      1.4240                 5.9544                 1.3010
 Frc consts  --      1.6514                 6.9857                 1.5541
 IR Inten    --    183.6259               347.5419                 9.8647

                    100                    101                    102
                      A                      A                      A
 Frequencies --   1450.3145              1453.8510              1485.1308
 Red. masses --      1.5606                 1.1690                 1.2017
 Frc consts  --      1.9341                 1.4558                 1.5617
 IR Inten    --     19.8805                 2.9874                 1.7669

                    103                    104                    105
                      A                      A                      A
 Frequencies --   1494.9900              1501.8427              1504.5631
 Red. masses --      2.2458                 1.2211                 1.0975
 Frc consts  --      2.9574                 1.6228                 1.4638
 IR Inten    --      2.5103                 1.4997                 3.9198

                    106                    107                    108
                      A                      A                      A
 Frequencies --   1507.3890              1510.0647              1511.3297
 Red. masses --      1.0786                 1.0549                 4.3372
 Frc consts  --      1.4440                 1.4173                 5.8369
 IR Inten    --      9.9715                 2.7311               204.7006

                    109                    110                    111
                      A                      A                      A
 Frequencies --   1521.8997              1523.1061              1528.2245
 Red. masses --      1.0991                 1.0566                 1.0463
 Frc consts  --      1.4999                 1.4441                 1.4398
 IR Inten    --      5.1220                10.4278                20.1275

                    112                    113                    114
                      A                      A                      A
 Frequencies --   1540.9239              1568.8756              1666.0281
 Red. masses --      1.0496                 2.2829                 5.5665
 Frc consts  --      1.4684                 3.3106                 9.1032
 IR Inten    --     12.3002               159.2945               338.1251

                    115                    116                    117
                      A                      A                      A
 Frequencies --   1682.7940              1729.2996              1856.9556
 Red. masses --      6.3415                 2.5793                 6.8678
 Frc consts  --     10.5804                 4.5445                13.9531
 IR Inten    --     22.2407               767.3969               584.2159

                    118                    119                    120
                      A                      A                      A
 Frequencies --   3101.9145              3103.6890              3110.4546
 Red. masses --      1.0541                 1.0498                 1.0473
 Frc consts  --      5.9760                 5.9582                 5.9700
 IR Inten    --     27.1302                28.4030                49.1265

                    121                    122                    123
                      A                      A                      A
 Frequencies --   3118.6365              3123.3989              3124.0333
 Red. masses --      1.0782                 1.0610                 1.0643
 Frc consts  --      6.1782                 6.0982                 6.1197
 IR Inten    --     23.4366                26.2630                41.3034

                    124                    125                    126
                      A                      A                      A
 Frequencies --   3127.3492              3145.4157              3160.5885
 Red. masses --      1.0681                 1.0651                 1.0986
 Frc consts  --      6.1550                 6.2085                 6.4661
 IR Inten    --     40.8899                25.8017                24.6810

                    127                    128                    129
                      A                      A                      A
 Frequencies --   3165.9808              3168.8236              3174.5833
 Red. masses --      1.1033                 1.1017                 1.1019
 Frc consts  --      6.5154                 6.5182                 6.5427
 IR Inten    --      9.4370                70.1827                57.4817

                    130                    131                    132
                      A                      A                      A
 Frequencies --   3174.8364              3185.1604              3193.5179
 Red. masses --      1.1041                 1.1037                 1.1021
 Frc consts  --      6.5568                 6.5973                 6.6225
 IR Inten    --     51.3601                30.7297                37.1787

                    133                    134                    135
                      A                      A                      A
 Frequencies --   3194.4192              3270.0596              3286.0888
 Red. masses --      1.1033                 1.0907                 1.0909
 Frc consts  --      6.6334                 6.8717                 6.9403
 IR Inten    --     18.5588                 0.2574                 1.6337

                    136                    137                    138
                      A                      A                      A
 Frequencies --   3293.7604              3422.0508              3693.6741
 Red. masses --      1.0914                 1.0828                 1.0763
 Frc consts  --      6.9762                 7.4706                 8.6514
 IR Inten    --      5.3827               929.1131                64.7900

 - Thermochemistry -
 -------------------
 Temperature   298.150 Kelvin.  Pressure   1.00000 Atm.
 Atom     1 has atomic number  6 and mass  12.00000

 Molecular mass:   397.15888 amu.
 Principal axes and moments of inertia in atomic units:
                           1         2         3
     Eigenvalues --  7483.69410********************
           X            0.99997   0.00143   0.00771
           Y           -0.00136   0.99997  -0.00813
           Z           -0.00772   0.00812   0.99994
 This molecule is an asymmetric top.
 Rotational symmetry number  1.
 Warning -- assumption of classical behavior for rotation
           may cause significant error
 Rotational temperatures (Kelvin)      0.01157     0.00507     0.00396
 Rotational constants (GHZ):           0.24116     0.10557     0.08246
    6 imaginary frequencies ignored.
 Zero-point vibrational energy    1006888.0 (Joules/Mol)
                                  240.65201 (Kcal/Mol)
 Warning -- explicit consideration of  36 degrees of freedom as
           vibrations may cause significant error
 Vibrational temperatures:     30.33    51.41   115.72   121.25   146.16
          (Kelvin)            153.05   176.52   201.03   219.05   236.33
                              254.31   290.32   354.07   360.89   387.75
                              394.26   404.44   410.42   451.12   485.70
                              519.41   529.71   566.66   573.47   593.50
                              617.59   635.93   656.92   666.96   719.50
                              735.38   747.83   768.48   798.31   827.38
                              878.60   921.92   988.30   997.57  1009.32
                             1012.61  1035.28  1071.20  1080.09  1115.08
                             1162.01  1197.73  1218.13  1255.40  1260.78
                             1284.23  1286.35  1311.61  1337.78  1359.28
                             1387.98  1407.20  1456.40  1486.57  1511.75
                             1524.21  1550.90  1556.21  1586.97  1597.49
                             1618.05  1632.37  1635.60  1644.04  1701.97
                             1709.96  1756.87  1796.99  1823.68  1836.62
                             1849.75  1858.89  1861.30  1866.87  1871.71
                             1875.31  1883.99  1887.32  1914.74  1935.48
                             1950.01  1959.08  1975.97  1980.15  2002.47
                             2018.58  2030.28  2048.61  2086.68  2091.77
                             2136.77  2150.96  2160.82  2164.73  2168.80
                             2172.65  2174.47  2189.67  2191.41  2198.77
                             2217.05  2257.26  2397.04  2421.17  2488.08
                             2671.74  4462.96  4465.52  4475.25  4487.02
                             4493.87  4494.79  4499.56  4525.55  4547.38
                             4555.14  4559.23  4567.52  4567.88  4582.74
                             4594.76  4596.06  4704.89  4727.95  4738.99
                             4923.57  5314.37

 Zero-point correction=                           0.383503 (Hartree/Particle)
 Thermal correction to Energy=                    0.404752
 Thermal correction to Enthalpy=                  0.405696
 Thermal correction to Gibbs Free Energy=         0.333234
 Sum of electronic and zero-point Energies=          -1498.068779
 Sum of electronic and thermal Energies=             -1498.047530
 Sum of electronic and thermal Enthalpies=           -1498.046586
 Sum of electronic and thermal Free Energies=        -1498.119048

                     E (Thermal)             CV                S
                      KCal/Mol        Cal/Mol-Kelvin    Cal/Mol-Kelvin
 Total                  253.986             85.239            152.510
 Electronic               0.000              0.000              0.000
 Translational            0.889              2.981             43.829
 Rotational               0.889              2.981             36.280
 Vibrational            252.208             79.278             72.401
 Vibration     1          0.593              1.985              6.530
 Vibration     2          0.594              1.982              5.483
 Vibration     3          0.600              1.962              3.880
 Vibration     4          0.601              1.960              3.789
 Vibration     5          0.604              1.948              3.424
 Vibration     6          0.605              1.944              3.334
 Vibration     7          0.610              1.930              3.058
 Vibration     8          0.615              1.914              2.808
 Vibration     9          0.619              1.900              2.644
 Vibration    10          0.623              1.886              2.500
 Vibration    11          0.628              1.871              2.362
 Vibration    12          0.639              1.837              2.117
 Vibration    13          0.661              1.769              1.758
 Vibration    14          0.663              1.761              1.725
 Vibration    15          0.674              1.729              1.599
 Vibration    16          0.676              1.721              1.571
 Vibration    17          0.681              1.709              1.527
 Vibration    18          0.683              1.701              1.502
 Vibration    19          0.701              1.648              1.344
 Vibration    20          0.718              1.600              1.224
 Vibration    21          0.735              1.553              1.118
 Vibration    22          0.741              1.538              1.087
 Vibration    23          0.761              1.483              0.986
 Vibration    24          0.765              1.473              0.968
 Vibration    25          0.776              1.443              0.918
 Vibration    26          0.791              1.407              0.861
 Vibration    27          0.802              1.379              0.820
 Vibration    28          0.815              1.346              0.776
 Vibration    29          0.821              1.331              0.756
 Vibration    30          0.855              1.250              0.658
 Vibration    31          0.866              1.225              0.631
 Vibration    32          0.875              1.206              0.610
 Vibration    33          0.889              1.175              0.578
 Vibration    34          0.910              1.129              0.534
 Vibration    35          0.931              1.085              0.495
 Vibration    36          0.970              1.009              0.432

 Normal termination of Gaussian 16 at Sat Dec  9 19:08:04 2023.
