 Gaussian 16, Revision C.01,
 Gaussian 16:  ES64L-G16RevC.01  3-Jul-2019

 -----------------------------------------------------------
 # m062x 6-31g(d) scrf=(iefpcm,solvent=benzene) freq=noraman
 -----------------------------------------------------------

 ------------
 Structure193
 ------------
 Symbolic Z-matrix:
 Charge =  0 Multiplicity = 1

                         Standard orientation:
 ---------------------------------------------------------------------
 Center     Atomic      Atomic             Coordinates (Angstroms)
 Number     Number       Type             X           Y           Z
 ---------------------------------------------------------------------
      1          6           0       -2.056701    0.420141   -0.083260
      2          6           0       -2.860185   -0.057496   -1.124128
      3          6           0       -3.239500   -1.397382   -1.163669
      4          6           0       -2.820694   -2.263466   -0.157330
      5          6           0       -2.030687   -1.799152    0.890517
      6          6           0       -1.654518   -0.458964    0.928628
      7          1           0       -3.180165    0.610713   -1.910798
      8          1           0       -3.854385   -1.767078   -1.971011
      9         17           0       -3.287078   -3.922995   -0.207681
     10          1           0       -1.716452   -2.475973    1.671757
     11          1           0       -1.055941   -0.097081    1.753170
     12          6           0       -0.988028    4.581290    0.076668
     13          6           0       -2.321644    4.186301    0.060505
     14          6           0       -2.642274    2.832572   -0.002354
     15          6           0       -1.642227    1.852293   -0.049309
     16          6           0       -0.286962    2.255140   -0.047073
     17          6           0        0.023066    3.624560    0.022392
     18          1           0       -0.732224    5.629797    0.128686
     19          1           0       -3.106608    4.927813    0.103353
     20          1           0       -3.682541    2.539066    0.001755
     21          7           0        0.694387    1.245611   -0.147126
     22          1           0        1.042249    3.977040    0.030337
     23          1           0        0.314241    0.314867   -0.200470
     24          6           0        2.037676    1.321530   -0.197504
     25          8           0        2.703147    2.353546   -0.175508
     26          6           0        4.041895   -2.409992   -0.662264
     27          6           0        4.199343   -1.433027   -1.643730
     28          6           0        3.536762   -0.215857   -1.482723
     29          6           0        2.725038   -0.003337   -0.359310
     30          6           0        2.641869   -1.031480    0.601331
     31          7           0        3.281595   -2.219763    0.443471
     32          1           0        4.537520   -3.367823   -0.743068
     33          1           0        4.824837   -1.609523   -2.507157
     34          1           0        3.656349    0.562220   -2.226113
     35         17           0        1.729590   -0.857910    2.063851
 ---------------------------------------------------------------------

 SCF Done:  E(RM062X) =  -1797.86679223     A.U. after   14 cycles

 The electronic state is 1-A.
 Alpha  occ. eigenvalues -- -102.68604-102.67507 -19.62650 -14.81351 -14.78823
 Alpha  occ. eigenvalues --  -10.67633 -10.66860 -10.62277 -10.61326 -10.61012
 Alpha  occ. eigenvalues --  -10.59722 -10.59405 -10.57932 -10.57825 -10.57407
 Alpha  occ. eigenvalues --  -10.57294 -10.57283 -10.57142 -10.57113 -10.56024
 Alpha  occ. eigenvalues --  -10.55630 -10.55463 -10.55242  -9.83367  -9.82292
 Alpha  occ. eigenvalues --   -7.55766  -7.55111  -7.55071  -7.54690  -7.54034
 Alpha  occ. eigenvalues --   -7.54014  -1.17455  -1.07872  -1.06846  -1.00820
 Alpha  occ. eigenvalues --   -0.97462  -0.96863  -0.94541  -0.92805  -0.87642
 Alpha  occ. eigenvalues --   -0.86939  -0.86365  -0.84515  -0.81636  -0.76405
 Alpha  occ. eigenvalues --   -0.72862  -0.72212  -0.71399  -0.71004  -0.67463
 Alpha  occ. eigenvalues --   -0.66227  -0.63527  -0.61445  -0.59574  -0.58998
 Alpha  occ. eigenvalues --   -0.57729  -0.55926  -0.55202  -0.53878  -0.53237
 Alpha  occ. eigenvalues --   -0.52144  -0.51746  -0.50830  -0.50641  -0.50139
 Alpha  occ. eigenvalues --   -0.49779  -0.49205  -0.48925  -0.47720  -0.46008
 Alpha  occ. eigenvalues --   -0.44911  -0.44570  -0.43226  -0.42515  -0.41927
 Alpha  occ. eigenvalues --   -0.40686  -0.40201  -0.39726  -0.38209  -0.37743
 Alpha  occ. eigenvalues --   -0.36801  -0.35478  -0.33327  -0.32621  -0.32189
 Alpha  occ. eigenvalues --   -0.31833  -0.29555  -0.27533
 Alpha virt. eigenvalues --   -0.01689  -0.00964  -0.00130   0.01032   0.02297
 Alpha virt. eigenvalues --    0.03821   0.07112   0.07947   0.08799   0.14145
 Alpha virt. eigenvalues --    0.14574   0.15220   0.16484   0.17226   0.17924

 Mulliken charges:
               1
     1  C   -0.016161
     2  C   -0.163882
     3  C   -0.166140
     4  C   -0.108658
     5  C   -0.157624
     6  C   -0.194470
     7  H    0.191838
     8  H    0.200509
     9  Cl   0.007138
    10  H    0.204428
    11  H    0.199536
    12  C   -0.172845
    13  C   -0.170180
    14  C   -0.196554
    15  C    0.000990
    16  C    0.303611
    17  C   -0.190314
    18  H    0.181254
    19  H    0.174412
    20  H    0.179695
    21  N   -0.738198
    22  H    0.214720
    23  H    0.374905
    24  C    0.560208
    25  O   -0.519780
    26  C    0.033894
    27  C   -0.183085
    28  C   -0.126443
    29  C   -0.000942
    30  C    0.056721
    31  N   -0.451137
    32  H    0.205278
    33  H    0.202405
    34  H    0.218370
    35  Cl   0.046502
 Sum of Mulliken charges =  -0.00000

 Dipole moment (field-independent basis, Debye):
    X=             -1.0213    Y=              0.0122    Z=             -3.2674  Tot=              3.4233
 Quadrupole moment (field-independent basis, Debye-Ang):
   XX=           -136.8230   YY=           -147.2605   ZZ=           -139.0522
   XY=            -16.3710   XZ=             -9.4343   YZ=              4.0279

  Exact polarizability:     247.135     -10.600     323.223     -10.586      -2.635     169.326
 Approx polarizability:     263.626      -4.008     343.491      -7.144      -9.496     216.663

                      1                      2                      3
                      A                      A                      A
 Frequencies --     15.3034                28.6484                38.5541
 Red. masses --      6.0273                10.0998                 8.8046
 Frc consts  --      0.0008                 0.0049                 0.0077
 IR Inten    --      2.3582                 2.3560                 1.1788

                      4                      5                      6
                      A                      A                      A
 Frequencies --     58.8273                63.0128                85.1223
 Red. masses --      5.4919                 7.0590                 6.1339
 Frc consts  --      0.0112                 0.0165                 0.0262
 IR Inten    --      0.6528                 1.7460                 1.2797

                      7                      8                      9
                      A                      A                      A
 Frequencies --     94.7954               131.7070               141.8395
 Red. masses --      5.5810                 7.7061                 6.6870
 Frc consts  --      0.0295                 0.0788                 0.0793
 IR Inten    --      0.2444                 1.5713                 1.7918

                     10                     11                     12
                      A                      A                      A
 Frequencies --    180.8338               182.7722               227.7965
 Red. masses --      6.8600                 5.7662                 6.9808
 Frc consts  --      0.1322                 0.1135                 0.2134
 IR Inten    --      2.0218                 1.1475                 0.9259

                     13                     14                     15
                      A                      A                      A
 Frequencies --    250.2604               275.2351               294.3491
 Red. masses --      8.9596                 6.3245                 5.8470
 Frc consts  --      0.3306                 0.2823                 0.2985
 IR Inten    --      4.1832                 1.8729                 1.3140

                     16                     17                     18
                      A                      A                      A
 Frequencies --    321.1924               339.8601               358.4430
 Red. masses --      7.9538                 6.6239                 4.0923
 Frc consts  --      0.4835                 0.4508                 0.3098
 IR Inten    --      8.3838                 1.1424                 0.7912

                     19                     20                     21
                      A                      A                      A
 Frequencies --    414.6970               420.9115               434.0856
 Red. masses --      5.3204                 2.9921                 5.7557
 Frc consts  --      0.5391                 0.3123                 0.6390
 IR Inten    --      7.2045                 1.0427                 0.3744

                     22                     23                     24
                      A                      A                      A
 Frequencies --    455.3600               488.2761               503.3465
 Red. masses --      8.0611                 8.4087                 3.7167
 Frc consts  --      0.9848                 1.1812                 0.5548
 IR Inten    --     19.6407                11.3611                 6.5049

                     25                     26                     27
                      A                      A                      A
 Frequencies --    506.9485               543.7216               555.0458
 Red. masses --      3.3913                 3.7180                 4.1473
 Frc consts  --      0.5135                 0.6476                 0.7528
 IR Inten    --      7.8177                19.2433                 5.3690

                     28                     29                     30
                      A                      A                      A
 Frequencies --    566.5162               594.1781               620.1737
 Red. masses --      2.6610                 1.3748                 5.8632
 Frc consts  --      0.5032                 0.2860                 1.3286
 IR Inten    --      9.3364                37.8153                 3.0760

                     31                     32                     33
                      A                      A                      A
 Frequencies --    644.5090               659.2230               677.4356
 Red. masses --      6.3318                 7.3668                 6.7361
 Frc consts  --      1.5497                 1.8862                 1.8214
 IR Inten    --      0.2560                 5.5590                 6.6369

                     34                     35                     36
                      A                      A                      A
 Frequencies --    736.8865               745.4435               763.6964
 Red. masses --      4.0838                 5.4256                 1.5384
 Frc consts  --      1.3065                 1.7763                 0.5286
 IR Inten    --      6.1926                 1.1322                77.6652

                     37                     38                     39
                      A                      A                      A
 Frequencies --    768.2267               770.0231               781.5267
 Red. masses --      3.9285                 4.2042                 2.6946
 Frc consts  --      1.3660                 1.4687                 0.9697
 IR Inten    --      3.3657                 2.4321                31.5016

                     40                     41                     42
                      A                      A                      A
 Frequencies --    787.5875               822.3421               841.1050
 Red. masses --      4.9930                 2.1920                 1.4086
 Frc consts  --      1.8248                 0.8734                 0.5871
 IR Inten    --     23.3158                 5.2938                11.6657

                     43                     44                     45
                      A                      A                      A
 Frequencies --    846.0088               858.7423               891.9739
 Red. masses --      1.4546                 4.0893                 1.4553
 Frc consts  --      0.6134                 1.7767                 0.6822
 IR Inten    --     36.6275                 2.1240                 3.0958

                     46                     47                     48
                      A                      A                      A
 Frequencies --    911.8360               963.1698               970.2386
 Red. masses --      7.8964                 1.3624                 1.3385
 Frc consts  --      3.8682                 0.7447                 0.7424
 IR Inten    --     60.6135                 2.3953                 0.6972

                     49                     50                     51
                      A                      A                      A
 Frequencies --    971.4523               980.9416              1003.4769
 Red. masses --      1.3988                 1.3497                 1.3091
 Frc consts  --      0.7778                 0.7652                 0.7767
 IR Inten    --      0.0996                 2.6555                 0.5482

                     52                     53                     54
                      A                      A                      A
 Frequencies --   1007.7178              1019.1636              1048.6791
 Red. masses --      1.3889                 6.3522                 3.1656
 Frc consts  --      0.8310                 3.8874                 2.0511
 IR Inten    --      0.2139                35.2142                 3.8677

                     55                     56                     57
                      A                      A                      A
 Frequencies --   1072.1064              1085.2171              1090.4642
 Red. masses --      3.7265                 1.9869                 3.6078
 Frc consts  --      2.5237                 1.3787                 2.5277
 IR Inten    --      1.3725                 7.3080                38.3306

                     58                     59                     60
                      A                      A                      A
 Frequencies --   1126.2429              1129.4569              1141.6632
 Red. masses --      2.3153                 1.5458                 1.9586
 Frc consts  --      1.7303                 1.1618                 1.5040
 IR Inten    --     22.7060                25.1892                18.6744

                     61                     62                     63
                      A                      A                      A
 Frequencies --   1145.6946              1177.0213              1183.2178
 Red. masses --      2.7570                 1.5928                 1.1261
 Frc consts  --      2.1322                 1.3001                 0.9289
 IR Inten    --     77.7727                11.6057                 2.2725

                     64                     65                     66
                      A                      A                      A
 Frequencies --   1199.2412              1201.2168              1229.1039
 Red. masses --      2.2173                 1.3464                 1.8160
 Frc consts  --      1.8788                 1.1446                 1.6164
 IR Inten    --      4.1578                 1.5761                 2.8793

                     67                     68                     69
                      A                      A                      A
 Frequencies --   1260.6799              1292.5337              1308.8663
 Red. masses --      1.9573                 3.5078                 2.4167
 Frc consts  --      1.8328                 3.4528                 2.4393
 IR Inten    --      5.2126                 9.2362                 8.1060

                     70                     71                     72
                      A                      A                      A
 Frequencies --   1315.0459              1322.8958              1326.2515
 Red. masses --      3.1570                 1.8772                 2.3591
 Frc consts  --      3.2167                 1.9355                 2.4448
 IR Inten    --      0.3454                 0.9495                 1.6495

                     73                     74                     75
                      A                      A                      A
 Frequencies --   1380.0944              1422.8609              1443.0514
 Red. masses --      1.9980                 2.6389                 3.0613
 Frc consts  --      2.2422                 3.1477                 3.7560
 IR Inten    --    168.6343               148.0789                11.4194

                     76                     77                     78
                      A                      A                      A
 Frequencies --   1474.6584              1499.7872              1518.5465
 Red. masses --      2.3674                 2.7634                 2.7108
 Frc consts  --      3.0332                 3.6623                 3.6831
 IR Inten    --     16.6668               134.7749                67.8539

                     79                     80                     81
                      A                      A                      A
 Frequencies --   1553.9629              1606.9109              1615.0031
 Red. masses --      2.9650                 2.9827                 5.5055
 Frc consts  --      4.2184                 4.5378                 8.4605
 IR Inten    --     53.2837               490.8357                63.6895

                     82                     83                     84
                      A                      A                      A
 Frequencies --   1628.4682              1648.9350              1665.3426
 Red. masses --      5.4494                 6.6468                 5.8773
 Frc consts  --      8.5145                10.6481                 9.6036
 IR Inten    --    254.3575                47.3849               132.7069

                     85                     86                     87
                      A                      A                      A
 Frequencies --   1678.1706              1685.8911              1781.7843
 Red. masses --      6.0783                 5.1588                 9.4122
 Frc consts  --     10.0857                 8.6389                17.6057
 IR Inten    --     26.0849                38.7406               425.3987

                     88                     89                     90
                      A                      A                      A
 Frequencies --   3270.4802              3272.3506              3279.9247
 Red. masses --      1.0901                 1.0867                 1.0893
 Frc consts  --      6.8698                 6.8561                 6.9044
 IR Inten    --      0.2651                 1.0461                 2.2129

                     91                     92                     93
                      A                      A                      A
 Frequencies --   3280.1908              3283.0632              3283.6163
 Red. masses --      1.0908                 1.0894                 1.0914
 Frc consts  --      6.9149                 6.9182                 6.9334
 IR Inten    --      6.7373                 4.6038                 7.3855

                     94                     95                     96
                      A                      A                      A
 Frequencies --   3292.8360              3294.7077              3295.4781
 Red. masses --      1.0969                 1.0949                 1.0977
 Frc consts  --      7.0073                 7.0027                 7.0241
 IR Inten    --     19.9233                 1.5216                 9.6561

                     97                     98                     99
                      A                      A                      A
 Frequencies --   3296.3000              3321.7663              3684.6885
 Red. masses --      1.0958                 1.0927                 1.0770
 Frc consts  --      7.0150                 7.1035                 8.6156
 IR Inten    --      0.7281                 1.9858               115.0693

 - Thermochemistry -
 -------------------
 Temperature   298.150 Kelvin.  Pressure   1.00000 Atm.
 Atom     1 has atomic number  6 and mass  12.00000

 Molecular mass:   342.03267 amu.
 Principal axes and moments of inertia in atomic units:
                           1         2         3
     Eigenvalues --  7915.663139295.25664**********
           X            0.99241  -0.12263  -0.00965
           Y            0.12267   0.99244   0.00347
           Z            0.00915  -0.00463   0.99995
 This molecule is an asymmetric top.
 Rotational symmetry number  1.
 Warning -- assumption of classical behavior for rotation
           may cause significant error
 Rotational temperatures (Kelvin)      0.01094     0.00932     0.00575
 Rotational constants (GHZ):           0.22800     0.19416     0.11985
 Zero-point vibrational energy     686231.9 (Joules/Mol)
                                  164.01335 (Kcal/Mol)
 Warning -- explicit consideration of  30 degrees of freedom as
           vibrations may cause significant error
 Vibrational temperatures:     22.02    41.22    55.47    84.64    90.66
          (Kelvin)            122.47   136.39   189.50   204.08   260.18
                              262.97   327.75   360.07   396.00   423.50
                              462.12   488.98   515.72   596.66   605.60
                              624.55   655.16   702.52   724.20   729.39
                              782.29   798.59   815.09   854.89   892.29
                              927.30   948.47   974.68  1060.22  1072.53
                             1098.79  1105.31  1107.89  1124.44  1133.16
                             1183.17  1210.16  1217.22  1235.54  1283.35
                             1311.93  1385.79  1395.96  1397.70  1411.36
                             1443.78  1449.88  1466.35  1508.82  1542.52
                             1561.39  1568.93  1620.41  1625.04  1642.60
                             1648.40  1693.47  1702.39  1725.44  1728.28
                             1768.41  1813.84  1859.67  1883.17  1892.06
                             1903.35  1908.18  1985.65  2047.18  2076.23
                             2121.70  2157.86  2184.85  2235.81  2311.99
                             2323.63  2343.00  2372.45  2396.06  2414.51
                             2425.62  2563.59  4705.49  4708.18  4719.08
                             4719.46  4723.60  4724.39  4737.66  4740.35
                             4741.46  4742.64  4779.28  5301.44

 Zero-point correction=                           0.261372 (Hartree/Particle)
 Thermal correction to Energy=                    0.280239
 Thermal correction to Enthalpy=                  0.281184
 Thermal correction to Gibbs Free Energy=         0.211221
 Sum of electronic and zero-point Energies=          -1797.605420
 Sum of electronic and thermal Energies=             -1797.586553
 Sum of electronic and thermal Enthalpies=           -1797.585609
 Sum of electronic and thermal Free Energies=        -1797.655571

                     E (Thermal)             CV                S
                      KCal/Mol        Cal/Mol-Kelvin    Cal/Mol-Kelvin
 Total                  175.853             72.690            147.248
 Electronic               0.000              0.000              0.000
 Translational            0.889              2.981             43.384
 Rotational               0.889              2.981             35.359
 Vibrational            174.075             66.729             68.505
 Vibration     1          0.593              1.986              7.166
 Vibration     2          0.593              1.984              5.921
 Vibration     3          0.594              1.981              5.332
 Vibration     4          0.596              1.974              4.496
 Vibration     5          0.597              1.972              4.361
 Vibration     6          0.601              1.959              3.769
 Vibration     7          0.603              1.953              3.559
 Vibration     8          0.612              1.922              2.921
 Vibration     9          0.615              1.911              2.779
 Vibration    10          0.630              1.866              2.320
 Vibration    11          0.630              1.863              2.300
 Vibration    12          0.651              1.799              1.896
 Vibration    13          0.663              1.762              1.729
 Vibration    14          0.677              1.719              1.563
 Vibration    15          0.689              1.684              1.449
 Vibration    16          0.707              1.633              1.304
 Vibration    17          0.720              1.596              1.213
 Vibration    18          0.733              1.558              1.129
 Vibration    19          0.778              1.438              0.910
 Vibration    20          0.783              1.425              0.889
 Vibration    21          0.795              1.396              0.845
 Vibration    22          0.814              1.349              0.780
 Vibration    23          0.844              1.276              0.688
 Vibration    24          0.859              1.243              0.650
 Vibration    25          0.862              1.235              0.641
 Vibration    26          0.899              1.153              0.557
 Vibration    27          0.910              1.129              0.534
 Vibration    28          0.922              1.104              0.511
 Vibration    29          0.952              1.044              0.460
 Vibration    30          0.980              0.989              0.416

 Normal termination of Gaussian 16 at Sat Dec  9 19:12:04 2023.
