 Gaussian 16, Revision C.01,
 Gaussian 16:  ES64L-G16RevC.01  3-Jul-2019

 -----------------------------------------------------------
 # m062x 6-31g(d) scrf=(iefpcm,solvent=benzene) freq=noraman
 -----------------------------------------------------------

 -------------
 Molecule Name
 -------------
 Symbolic Z-matrix:
 Charge =  1 Multiplicity = 1

                         Standard orientation:
 ---------------------------------------------------------------------
 Center     Atomic      Atomic             Coordinates (Angstroms)
 Number     Number       Type             X           Y           Z
 ---------------------------------------------------------------------
      1          8           0        0.257674   -1.527264    2.409400
      2          6           0        0.079620   -0.586991    1.372780
      3          6           0        1.382237   -0.604318    0.514056
      4          1           0        0.002982    0.376791    1.869311
      5          6           0       -1.171312   -0.916848    0.546714
      6          1           0        1.491429   -1.618363    0.119363
      7          6           0        2.706424   -0.210031    1.243762
      8          7           0        1.228171    0.295205   -0.755253
      9          6           0       -2.196049    0.057268    0.278163
     10          6           0       -1.317684   -2.204938    0.015684
     11          6           0        3.544768    0.816901    0.432439
     12          1           0        3.286164   -1.105703    1.473308
     13          1           0        2.477231    0.200060    2.229579
     14          6           0        1.311099    1.808025   -0.394353
     15          6           0        2.400955   -0.027821   -1.728569
     16          6           0       -2.211473    1.391387    0.784947
     17          6           0       -3.288423   -0.351329   -0.557452
     18          6           0       -2.421940   -2.503952   -0.772585
     19          1           0       -0.585254   -2.975188    0.219847
     20          6           0        2.678599    2.096039    0.286039
     21          1           0        4.495743    1.035975    0.928254
     22          6           0        3.764108    0.245467   -1.004916
     23          1           0        0.471171    2.045902    0.258286
     24          1           0        1.181342    2.375303   -1.320040
     25          1           0        2.282511   -1.066504   -2.050075
     26          1           0        2.267447    0.603248   -2.611827
     27          6           0       -3.247562    2.265649    0.461608
     28          1           0       -1.448320    1.752969    1.451815
     29          6           0       -4.321198    0.563899   -0.870491
     30          7           0       -3.386131   -1.606662   -1.072270
     31          1           0       -2.558385   -3.495309   -1.184460
     32          1           0        2.512144    2.547961    1.266665
     33          1           0        3.221116    2.855058   -0.282458
     34          1           0        4.292717    1.005843   -1.586945
     35          6           0        4.691045   -0.989728   -1.020811
     36          6           0       -4.289783    1.858446   -0.361752
     37          1           0       -5.140425    0.241939   -1.499266
     38          1           0        4.931652   -1.292976   -2.041386
     39          1           0        5.640093   -0.783189   -0.522598
     40          1           0        4.245157   -1.853947   -0.527144
     41          1           0       -5.089348    2.549250   -0.595608
     42          1           0       -0.570746   -1.599215    2.896851
     43          1           0        0.332492    0.085351   -1.189276
     44          1           0       -3.255172    3.270307    0.863686
 ---------------------------------------------------------------------

 SCF Done:  E(RM062X) =  -883.921326506     A.U. after   14 cycles

 The electronic state is 1-A.
 Alpha  occ. eigenvalues --  -19.70703 -14.95892 -14.81280 -10.69349 -10.68921
 Alpha  occ. eigenvalues --  -10.68420 -10.68332 -10.64238 -10.64117 -10.63950
 Alpha  occ. eigenvalues --  -10.63303 -10.63234 -10.63090 -10.62390 -10.62267
 Alpha  occ. eigenvalues --  -10.61927 -10.61480 -10.60765 -10.60321 -10.60183
 Alpha  occ. eigenvalues --  -10.59318  -1.21958  -1.18032  -1.09946  -1.00290
 Alpha  occ. eigenvalues --   -0.99661  -0.98108  -0.95071  -0.94781  -0.90398
 Alpha  occ. eigenvalues --   -0.88558  -0.86731  -0.84879  -0.81994  -0.79476
 Alpha  occ. eigenvalues --   -0.77526  -0.76474  -0.76145  -0.72926  -0.71148
 Alpha  occ. eigenvalues --   -0.68290  -0.67355  -0.65981  -0.64614  -0.64147
 Alpha  occ. eigenvalues --   -0.63369  -0.61707  -0.58796  -0.57861  -0.57199
 Alpha  occ. eigenvalues --   -0.56988  -0.56339  -0.56200  -0.55448  -0.55329
 Alpha  occ. eigenvalues --   -0.54180  -0.53959  -0.53627  -0.52990  -0.52440
 Alpha  occ. eigenvalues --   -0.51876  -0.50387  -0.48973  -0.47844  -0.47131
 Alpha  occ. eigenvalues --   -0.46416  -0.45882  -0.45691  -0.45066  -0.43713
 Alpha  occ. eigenvalues --   -0.43226  -0.42682  -0.40560  -0.37158  -0.35723
 Alpha  occ. eigenvalues --   -0.32708
 Alpha virt. eigenvalues --   -0.08727  -0.03557  -0.01144   0.01183   0.04289
 Alpha virt. eigenvalues --    0.05613   0.06024   0.06424   0.07545   0.07995
 Alpha virt. eigenvalues --    0.09034   0.09736   0.10354   0.10848   0.11555

 Mulliken charges:
               1
     1  O   -0.652101
     2  C    0.080035
     3  C   -0.011480
     4  H    0.171330
     5  C   -0.023080
     6  H    0.221060
     7  C   -0.332544
     8  N   -0.589432
     9  C    0.075596
    10  C   -0.219278
    11  C   -0.154358
    12  H    0.217861
    13  H    0.206163
    14  C   -0.196005
    15  C   -0.196460
    16  C   -0.238131
    17  C    0.218810
    18  C    0.023281
    19  H    0.206796
    20  C   -0.335427
    21  H    0.211715
    22  C   -0.150000
    23  H    0.219480
    24  H    0.241164
    25  H    0.234590
    26  H    0.237307
    27  C   -0.161333
    28  H    0.182323
    29  C   -0.159601
    30  N   -0.506524
    31  H    0.206334
    32  H    0.205274
    33  H    0.207702
    34  H    0.197525
    35  C   -0.502889
    36  C   -0.170029
    37  H    0.205627
    38  H    0.189556
    39  H    0.193735
    40  H    0.170744
    41  H    0.200144
    42  H    0.448715
    43  H    0.429163
    44  H    0.196643
 Sum of Mulliken charges =   1.00000

 Dipole moment (field-independent basis, Debye):
    X=              6.7034    Y=              3.1599    Z=             -1.3081  Tot=              7.5254
 Quadrupole moment (field-independent basis, Debye-Ang):
   XX=            -91.4625   YY=           -104.6219   ZZ=           -112.6977
   XY=             -3.2470   XZ=             -9.1706   YZ=              0.5651

  Exact polarizability:     248.435     -28.458     245.180      29.222      18.213     164.567
 Approx polarizability:     251.484     -31.520     292.037      39.886      25.615     198.145

 ******    2 imaginary frequencies (negative Signs) ******

                      1                      2                      3
                      A                      A                      A
 Frequencies --   -196.4947               -23.7122                38.5698
 Red. masses --      1.0494                 2.8109                 3.9009
 Frc consts  --      0.0239                 0.0009                 0.0034
 IR Inten    --    157.7940                 1.4490                 2.6550

                      4                      5                      6
                      A                      A                      A
 Frequencies --     63.1472                91.9770               121.3277
 Red. masses --      5.2415                 3.5490                 2.4599
 Frc consts  --      0.0123                 0.0177                 0.0213
 IR Inten    --      1.2862                 2.1001                 2.3678

                      7                      8                      9
                      A                      A                      A
 Frequencies --    133.8899               153.0903               179.9649
 Red. masses --      1.7866                 4.4374                 2.2343
 Frc consts  --      0.0189                 0.0613                 0.0426
 IR Inten    --      1.6671                 2.1195                 0.4776

                     10                     11                     12
                      A                      A                      A
 Frequencies --    201.4090               222.5715               233.1193
 Red. masses --      3.4303                 2.7188                 3.8603
 Frc consts  --      0.0820                 0.0794                 0.1236
 IR Inten    --      1.1565                 3.0113                 2.6438

                     13                     14                     15
                      A                      A                      A
 Frequencies --    273.7738               287.1049               304.9974
 Red. masses --      4.2108                 3.6687                 2.5399
 Frc consts  --      0.1859                 0.1782                 0.1392
 IR Inten    --      6.8744                 9.0600                 0.1939

                     16                     17                     18
                      A                      A                      A
 Frequencies --    361.9558               372.2273               383.2846
 Red. masses --      2.8850                 2.5349                 2.8593
 Frc consts  --      0.2227                 0.2069                 0.2475
 IR Inten    --      0.8523                 5.1306                 0.9201

                     19                     20                     21
                      A                      A                      A
 Frequencies --    420.9375               428.7221               469.3733
 Red. masses --      3.0914                 3.5794                 2.9268
 Frc consts  --      0.3227                 0.3876                 0.3799
 IR Inten    --      4.5523                 1.2484                 8.6857

                     22                     23                     24
                      A                      A                      A
 Frequencies --    483.2701               488.1767               518.3037
 Red. masses --      3.4327                 4.0406                 6.2745
 Frc consts  --      0.4723                 0.5673                 0.9931
 IR Inten    --      0.6678                 8.1191                 3.9352

                     25                     26                     27
                      A                      A                      A
 Frequencies --    531.7287               545.9295               565.3344
 Red. masses --      6.1793                 3.9721                 2.9543
 Frc consts  --      1.0294                 0.6975                 0.5563
 IR Inten    --      0.5277                 1.7396                 0.5488

                     28                     29                     30
                      A                      A                      A
 Frequencies --    614.3438               619.4502               646.2032
 Red. masses --      5.9105                 3.5317                 5.5987
 Frc consts  --      1.3143                 0.7984                 1.3775
 IR Inten    --      1.8193                 0.5085                14.4104

                     31                     32                     33
                      A                      A                      A
 Frequencies --    681.7122               729.1990               759.4450
 Red. masses --      3.5068                 3.3986                 2.1814
 Frc consts  --      0.9602                 1.0647                 0.7413
 IR Inten    --      1.5414                 1.4001                12.5558

                     34                     35                     36
                      A                      A                      A
 Frequencies --    764.4796               770.5713               803.0850
 Red. masses --      2.8077                 2.4154                 2.8929
 Frc consts  --      0.9668                 0.8450                 1.0993
 IR Inten    --     14.6104                47.1196                 0.3690

                     37                     38                     39
                      A                      A                      A
 Frequencies --    809.1827               812.9620               826.9081
 Red. masses --      2.0843                 4.2162                 1.6403
 Frc consts  --      0.8041                 1.6418                 0.6608
 IR Inten    --     31.0479                 5.5999                 6.9311

                     40                     41                     42
                      A                      A                      A
 Frequencies --    842.0106               863.1401               868.7267
 Red. masses --      2.8190                 1.3618                 4.0111
 Frc consts  --      1.1776                 0.5978                 1.7835
 IR Inten    --     22.4737                10.6524                 2.2901

                     43                     44                     45
                      A                      A                      A
 Frequencies --    877.1955               883.8749               903.5803
 Red. masses --      1.8137                 2.6303                 2.2192
 Frc consts  --      0.8222                 1.2107                 1.0676
 IR Inten    --      5.8298                12.4050                11.1469

                     46                     47                     48
                      A                      A                      A
 Frequencies --    920.4422               943.2626               970.2601
 Red. masses --      1.8434                 2.3043                 2.4560
 Frc consts  --      0.9201                 1.2080                 1.3623
 IR Inten    --     12.9042                 1.8147                21.4221

                     49                     50                     51
                      A                      A                      A
 Frequencies --    976.0511               979.2624               989.6386
 Red. masses --      1.3879                 1.9224                 1.4395
 Frc consts  --      0.7790                 1.0861                 0.8306
 IR Inten    --      1.4464                 4.0573                 0.2883

                     52                     53                     54
                      A                      A                      A
 Frequencies --   1000.8191              1023.0660              1024.9752
 Red. masses --      1.9316                 1.8067                 2.1522
 Frc consts  --      1.1399                 1.1142                 1.3322
 IR Inten    --      1.5791                 2.6851                 2.6561

                     55                     56                     57
                      A                      A                      A
 Frequencies --   1046.7821              1056.1155              1069.5730
 Red. masses --      2.2078                 2.2779                 2.3757
 Frc consts  --      1.4253                 1.4969                 1.6013
 IR Inten    --      6.6987                32.9036                10.3458

                     58                     59                     60
                      A                      A                      A
 Frequencies --   1073.1548              1088.7149              1119.2530
 Red. masses --      1.9041                 2.0333                 2.0895
 Frc consts  --      1.2920                 1.4199                 1.5422
 IR Inten    --      8.0850                38.8825                 3.4286

                     61                     62                     63
                      A                      A                      A
 Frequencies --   1140.2883              1145.2088              1153.3468
 Red. masses --      1.6217                 1.9701                 2.0804
 Frc consts  --      1.2423                 1.5223                 1.6305
 IR Inten    --     19.5381                 7.6713                12.7469

                     64                     65                     66
                      A                      A                      A
 Frequencies --   1157.1262              1169.4092              1193.1504
 Red. masses --      1.9186                 1.2891                 1.7523
 Frc consts  --      1.5135                 1.0387                 1.4698
 IR Inten    --     12.3543                12.7339                18.9112

                     67                     68                     69
                      A                      A                      A
 Frequencies --   1207.1160              1225.7025              1230.0450
 Red. masses --      1.2154                 1.5306                 1.3944
 Frc consts  --      1.0435                 1.3548                 1.2430
 IR Inten    --     10.8148                 2.2585                 5.8939

                     70                     71                     72
                      A                      A                      A
 Frequencies --   1245.1434              1251.0016              1260.5042
 Red. masses --      1.5032                 1.3245                 1.6632
 Frc consts  --      1.3731                 1.2213                 1.5570
 IR Inten    --      2.0688                 3.7812                15.0604

                     73                     74                     75
                      A                      A                      A
 Frequencies --   1268.1596              1283.7222              1285.2012
 Red. masses --      1.2175                 1.9178                 1.4925
 Frc consts  --      1.1536                 1.8620                 1.4525
 IR Inten    --     31.0720                 9.8247                 3.0324

                     76                     77                     78
                      A                      A                      A
 Frequencies --   1295.2703              1313.3780              1335.1102
 Red. masses --      1.3207                 1.2529                 1.3907
 Frc consts  --      1.3055                 1.2733                 1.4606
 IR Inten    --     31.1732                18.8629                38.3152

                     79                     80                     81
                      A                      A                      A
 Frequencies --   1340.0311              1350.3011              1356.4841
 Red. masses --      1.3621                 1.3323                 1.4344
 Frc consts  --      1.4410                 1.4313                 1.5551
 IR Inten    --     17.0609                20.3402                 5.1764

                     82                     83                     84
                      A                      A                      A
 Frequencies --   1371.0449              1381.9943              1383.3303
 Red. masses --      1.3417                 1.2998                 1.4974
 Frc consts  --      1.4860                 1.4626                 1.6883
 IR Inten    --      8.2739                 1.1090                 4.3221

                     85                     86                     87
                      A                      A                      A
 Frequencies --   1387.8213              1403.1182              1415.3279
 Red. masses --      1.4440                 3.5344                 1.4593
 Frc consts  --      1.6387                 4.0997                 1.7223
 IR Inten    --      2.3700                15.5620                16.8298

                     88                     89                     90
                      A                      A                      A
 Frequencies --   1416.9660              1423.6020              1434.5498
 Red. masses --      1.4074                 1.4596                 2.2677
 Frc consts  --      1.6649                 1.7428                 2.7496
 IR Inten    --     14.9893                 8.8034                 1.4144

                     91                     92                     93
                      A                      A                      A
 Frequencies --   1435.8625              1447.4640              1495.5802
 Red. masses --      1.2387                 2.3763                 2.3300
 Frc consts  --      1.5046                 2.9334                 3.0706
 IR Inten    --      4.4678                 3.6095                 2.1750

                     94                     95                     96
                      A                      A                      A
 Frequencies --   1515.5456              1518.2026              1524.4349
 Red. masses --      1.0531                 1.0702                 1.0579
 Frc consts  --      1.4251                 1.4534                 1.4484
 IR Inten    --     14.3262                 1.7989                 7.3968

                     97                     98                     99
                      A                      A                      A
 Frequencies --   1528.2723              1542.2270              1552.8956
 Red. masses --      1.0808                 1.0791                 1.0768
 Frc consts  --      1.4873                 1.5122                 1.5299
 IR Inten    --     13.4715                12.8951                 5.6992

                    100                    101                    102
                      A                      A                      A
 Frequencies --   1579.4920              1606.2830              1655.0975
 Red. masses --      4.8246                 4.4745                 6.3879
 Frc consts  --      7.0917                 6.8020                10.3100
 IR Inten    --      8.8357                57.8288                 7.4433

                    103                    104                    105
                      A                      A                      A
 Frequencies --   1660.5111              3110.2098              3116.4859
 Red. masses --      6.5167                 1.0855                 1.0386
 Frc consts  --     10.5867                 6.1867                 5.9433
 IR Inten    --     13.0944                 8.9947                14.9965

                    106                    107                    108
                      A                      A                      A
 Frequencies --   3127.2685              3127.5481              3131.6472
 Red. masses --      1.0635                 1.0652                 1.0854
 Frc consts  --      6.1279                 6.1388                 6.2717
 IR Inten    --     12.1940                 5.8840                 1.1343

                    109                    110                    111
                      A                      A                      A
 Frequencies --   3134.2796              3135.7047              3140.4211
 Red. masses --      1.0792                 1.0696                 1.0773
 Frc consts  --      6.2461                 6.1962                 6.2597
 IR Inten    --      5.9440                 5.3801                13.1843

                    112                    113                    114
                      A                      A                      A
 Frequencies --   3163.0934              3170.2925              3179.5100
 Red. masses --      1.1021                 1.0968                 1.0912
 Frc consts  --      6.4968                 6.4948                 6.4993
 IR Inten    --      8.9489                 4.5951                16.3781

                    115                    116                    117
                      A                      A                      A
 Frequencies --   3180.0971              3185.3998              3198.3357
 Red. masses --      1.1037                 1.1022                 1.1021
 Frc consts  --      6.5762                 6.5893                 6.6425
 IR Inten    --     11.8752                13.6775                21.9506

                    118                    119                    120
                      A                      A                      A
 Frequencies --   3212.4157              3264.2882              3266.2883
 Red. masses --      1.1019                 1.0877                 1.0878
 Frc consts  --      6.6997                 6.8285                 6.8376
 IR Inten    --      1.9196                 4.2274                 7.0427

                    121                    122                    123
                      A                      A                      A
 Frequencies --   3276.9996              3280.6698              3287.8479
 Red. masses --      1.0939                 1.0967                 1.0958
 Frc consts  --      6.9211                 6.9543                 6.9789
 IR Inten    --      5.0978                 7.3724                 3.8912

                    124                    125                    126
                      A                      A                      A
 Frequencies --   3338.2888              3562.3226              3874.6389
 Red. masses --      1.0891                 1.0790                 1.0671
 Frc consts  --      7.1510                 8.0675                 9.4391
 IR Inten    --     14.3382               126.5165               101.7806

 - Thermochemistry -
 -------------------
 Temperature   298.150 Kelvin.  Pressure   1.00000 Atm.
 Atom     1 has atomic number  8 and mass  15.99491

 Molecular mass:   283.18104 amu.
 Principal axes and moments of inertia in atomic units:
                           1         2         3
     Eigenvalues --  3095.575269019.779689879.39071
           X            0.99996  -0.00721  -0.00568
           Y            0.00733   0.99973   0.02225
           Z            0.00551  -0.02229   0.99974
 This molecule is an asymmetric top.
 Rotational symmetry number  1.
 Warning -- assumption of classical behavior for rotation
           may cause significant error
 Rotational temperatures (Kelvin)      0.02798     0.00960     0.00877
 Rotational constants (GHZ):           0.58301     0.20009     0.18268
    2 imaginary frequencies ignored.
 Zero-point vibrational energy    1020301.0 (Joules/Mol)
                                  243.85779 (Kcal/Mol)
 Warning -- explicit consideration of  27 degrees of freedom as
           vibrations may cause significant error
 Vibrational temperatures:     55.49    90.85   132.33   174.56   192.64
          (Kelvin)            220.26   258.93   289.78   320.23   335.41
                              393.90   413.08   438.82   520.77   535.55
                              551.46   605.64   616.84   675.32   695.32
                              702.38   745.72   765.04   785.47   813.39
                              883.90   891.25   929.74   980.83  1049.15
                             1092.67  1099.92  1108.68  1155.46  1164.23
                             1169.67  1189.74  1211.47  1241.87  1249.90
                             1262.09  1271.70  1300.05  1324.31  1357.14
                             1395.99  1404.32  1408.94  1423.87  1439.96
                             1471.96  1474.71  1506.09  1519.51  1538.88
                             1544.03  1566.42  1610.36  1640.62  1647.70
                             1659.41  1664.85  1682.52  1716.68  1736.77
                             1763.51  1769.76  1791.48  1799.91  1813.58
                             1824.60  1846.99  1849.12  1863.61  1889.66
                             1920.93  1928.01  1942.78  1951.68  1972.63
                             1988.38  1990.30  1996.77  2018.77  2036.34
                             2038.70  2048.25  2064.00  2065.89  2082.58
                             2151.81  2180.53  2184.35  2193.32  2198.84
                             2218.92  2234.27  2272.54  2311.08  2381.32
                             2389.11  4474.90  4483.93  4499.44  4499.84
                             4505.74  4509.53  4511.58  4518.37  4550.99
                             4561.34  4574.61  4575.45  4583.08  4601.69
                             4621.95  4696.58  4699.46  4714.87  4720.15
                             4730.48  4803.05  5125.39  5574.74

 Zero-point correction=                           0.388612 (Hartree/Particle)
 Thermal correction to Energy=                    0.404978
 Thermal correction to Enthalpy=                  0.405922
 Thermal correction to Gibbs Free Energy=         0.345401
 Sum of electronic and zero-point Energies=           -883.532714
 Sum of electronic and thermal Energies=              -883.516348
 Sum of electronic and thermal Enthalpies=            -883.515404
 Sum of electronic and thermal Free Energies=         -883.575926

                     E (Thermal)             CV                S
                      KCal/Mol        Cal/Mol-Kelvin    Cal/Mol-Kelvin
 Total                  254.128             69.386            127.378
 Electronic               0.000              0.000              0.000
 Translational            0.889              2.981             42.821
 Rotational               0.889              2.981             33.977
 Vibrational            252.350             63.424             50.580
 Vibration     1          0.594              1.981              5.331
 Vibration     2          0.597              1.972              4.356
 Vibration     3          0.602              1.955              3.618
 Vibration     4          0.609              1.931              3.079
 Vibration     5          0.613              1.919              2.889
 Vibration     6          0.619              1.899              2.633
 Vibration     7          0.629              1.867              2.329
 Vibration     8          0.638              1.838              2.120
 Vibration     9          0.648              1.807              1.938
 Vibration    10          0.654              1.790              1.855
 Vibration    11          0.676              1.722              1.572
 Vibration    12          0.684              1.698              1.491
 Vibration    13          0.696              1.664              1.389
 Vibration    14          0.736              1.551              1.114
 Vibration    15          0.744              1.529              1.071
 Vibration    16          0.752              1.506              1.026
 Vibration    17          0.783              1.425              0.889
 Vibration    18          0.790              1.408              0.863
 Vibration    19          0.826              1.318              0.739
 Vibration    20          0.839              1.287              0.701
 Vibration    21          0.844              1.276              0.688
 Vibration    22          0.873              1.209              0.614
 Vibration    23          0.887              1.180              0.583
 Vibration    24          0.901              1.149              0.553
 Vibration    25          0.921              1.106              0.513
 Vibration    26          0.974              1.002              0.426
 Vibration    27          0.979              0.991              0.417

 Normal termination of Gaussian 16 at Thu Dec 14 14:52:39 2023.
