 Gaussian 16, Revision C.01,
 Gaussian 16:  ES64L-G16RevC.01  3-Jul-2019

 -----------------------------------------------------------
 # m062x 6-31g(d) scrf=(iefpcm,solvent=benzene) freq=noraman
 -----------------------------------------------------------

 -------------
 Molecule Name
 -------------
 Symbolic Z-matrix:
 Charge =  1 Multiplicity = 1

                         Standard orientation:
 ---------------------------------------------------------------------
 Center     Atomic      Atomic             Coordinates (Angstroms)
 Number     Number       Type             X           Y           Z
 ---------------------------------------------------------------------
      1          8           0       -0.536244   -2.036203   -1.474521
      2          6           0       -0.004141   -0.787309   -1.074839
      3          6           0       -1.048063    0.060574   -0.276514
      4          1           0        0.228485   -0.279524   -2.011813
      5          6           0        1.296858   -0.948300   -0.279031
      6          1           0       -0.534057    0.979947    0.017421
      7          6           0       -1.658383   -0.588775    1.006201
      8          7           0       -2.219053    0.565193   -1.187222
      9          6           0        2.297602    0.083008   -0.294527
     10          6           0        1.527693   -2.090240    0.500787
     11          6           0       -3.198634   -0.403689    1.086015
     12          1           0       -1.162729   -0.201912    1.897925
     13          1           0       -1.424548   -1.654954    1.023152
     14          6           0       -3.258507   -0.557632   -1.488821
     15          6           0       -2.974933    1.690733   -0.415642
     16          6           0        2.185773    1.304912   -1.021990
     17          6           0        3.484581   -0.133166    0.479529
     18          6           0        2.713579   -2.205036    1.217143
     19          1           0        0.798295   -2.887059    0.557458
     20          6           0       -3.807231   -1.119841   -0.148616
     21          1           0       -3.601592   -0.813036    2.017513
     22          6           0       -3.519633    1.117740    0.938480
     23          1           0       -2.783419   -1.326315   -2.099843
     24          1           0       -4.051282   -0.114538   -2.096994
     25          1           0       -2.279525    2.524231   -0.282347
     26          1           0       -3.780295    2.042511   -1.066629
     27          6           0        3.209304    2.250304   -0.984539
     28          1           0        1.314526    1.520248   -1.617846
     29          6           0        4.503618    0.848389    0.495911
     30          7           0        3.679819   -1.260174    1.216143
     31          1           0        2.915026   -3.080136    1.820267
     32          1           0       -3.595392   -2.190624   -0.098012
     33          1           0       -4.896878   -1.046788   -0.132483
     34          1           0       -4.607823    1.226069    0.921981
     35          6           0       -3.050186    1.946630    2.154104
     36          6           0        4.357207    2.024454   -0.234123
     37          1           0        5.396701    0.672347    1.079989
     38          1           0       -3.394817    2.980080    2.087499
     39          1           0       -3.445332    1.543455    3.088343
     40          1           0       -1.963942    1.976528    2.245793
     41          1           0        5.142790    2.768396   -0.219760
     42          1           0        0.176932   -2.534388   -1.890119
     43          1           0       -1.844675    0.922884   -2.058733
     44          1           0        3.119119    3.170530   -1.546217
 ---------------------------------------------------------------------

 SCF Done:  E(RM062X) =  -883.922759870     A.U. after   13 cycles

 The electronic state is 1-A.
 Alpha  occ. eigenvalues --  -19.71372 -14.95844 -14.80475 -10.69686 -10.69225
 Alpha  occ. eigenvalues --  -10.68315 -10.67609 -10.63695 -10.63321 -10.63221
 Alpha  occ. eigenvalues --  -10.63175 -10.63120 -10.62250 -10.62093 -10.61892
 Alpha  occ. eigenvalues --  -10.61163 -10.60930 -10.60224 -10.59735 -10.59579
 Alpha  occ. eigenvalues --  -10.59293  -1.22419  -1.17744  -1.09122  -0.99758
 Alpha  occ. eigenvalues --   -0.99515  -0.97871  -0.94686  -0.94275  -0.89716
 Alpha  occ. eigenvalues --   -0.87868  -0.86576  -0.84927  -0.81699  -0.79329
 Alpha  occ. eigenvalues --   -0.76980  -0.76106  -0.75589  -0.72535  -0.70978
 Alpha  occ. eigenvalues --   -0.68057  -0.66757  -0.65349  -0.64516  -0.63888
 Alpha  occ. eigenvalues --   -0.63485  -0.61480  -0.58793  -0.57442  -0.57161
 Alpha  occ. eigenvalues --   -0.56610  -0.56492  -0.55718  -0.54969  -0.54868
 Alpha  occ. eigenvalues --   -0.53751  -0.53428  -0.52997  -0.52414  -0.52202
 Alpha  occ. eigenvalues --   -0.51457  -0.50172  -0.48872  -0.47867  -0.46706
 Alpha  occ. eigenvalues --   -0.46358  -0.45485  -0.45027  -0.44840  -0.43585
 Alpha  occ. eigenvalues --   -0.43244  -0.42392  -0.39960  -0.36471  -0.34929
 Alpha  occ. eigenvalues --   -0.32085
 Alpha virt. eigenvalues --   -0.07956  -0.02791   0.00009   0.00551   0.05299
 Alpha virt. eigenvalues --    0.05561   0.06140   0.06953   0.07019   0.08780
 Alpha virt. eigenvalues --    0.09113   0.09727   0.10311   0.10706   0.11110

 Mulliken charges:
               1
     1  O   -0.660337
     2  C    0.064361
     3  C   -0.013265
     4  H    0.178727
     5  C    0.020560
     6  H    0.222322
     7  C   -0.334725
     8  N   -0.590283
     9  C    0.090281
    10  C   -0.223999
    11  C   -0.154237
    12  H    0.213999
    13  H    0.207319
    14  C   -0.201775
    15  C   -0.200424
    16  C   -0.219630
    17  C    0.219393
    18  C    0.024139
    19  H    0.199356
    20  C   -0.332949
    21  H    0.210362
    22  C   -0.149173
    23  H    0.257603
    24  H    0.228921
    25  H    0.231901
    26  H    0.236424
    27  C   -0.162865
    28  H    0.150606
    29  C   -0.159740
    30  N   -0.511498
    31  H    0.202397
    32  H    0.208827
    33  H    0.204205
    34  H    0.197251
    35  C   -0.503055
    36  C   -0.171215
    37  H    0.202573
    38  H    0.188768
    39  H    0.193823
    40  H    0.170664
    41  H    0.196420
    42  H    0.448925
    43  H    0.428746
    44  H    0.190294
 Sum of Mulliken charges =   1.00000

 Dipole moment (field-independent basis, Debye):
    X=             -9.9847    Y=              2.5175    Z=             -4.2735  Tot=             11.1487
 Quadrupole moment (field-independent basis, Debye-Ang):
   XX=            -85.2285   YY=           -102.6923   ZZ=           -109.3556
   XY=             -0.2575   XZ=              1.3615   YZ=             -3.2961

  Exact polarizability:     250.005      28.111     238.508      23.501     -32.440     170.522
 Approx polarizability:     257.583      32.109     280.290      32.630     -45.860     201.888

 ******    2 imaginary frequencies (negative Signs) ******

                      1                      2                      3
                      A                      A                      A
 Frequencies --   -136.6886               -59.9334                16.3203
 Red. masses --      1.1807                 2.5155                 3.0407
 Frc consts  --      0.0130                 0.0053                 0.0005
 IR Inten    --    162.0226                 3.7041                 0.2056

                      4                      5                      6
                      A                      A                      A
 Frequencies --     33.8350                73.4361                85.6809
 Red. masses --      3.3181                 4.0752                 1.7815
 Frc consts  --      0.0022                 0.0129                 0.0077
 IR Inten    --      2.4758                 1.6257                 0.1891

                      7                      8                      9
                      A                      A                      A
 Frequencies --    127.1092               168.5174               198.2127
 Red. masses --      4.0498                 2.7459                 2.7826
 Frc consts  --      0.0386                 0.0459                 0.0644
 IR Inten    --      1.9932                 2.5215                 0.1529

                     10                     11                     12
                      A                      A                      A
 Frequencies --    204.9774               228.4751               236.3691
 Red. masses --      2.9287                 3.7816                 2.7607
 Frc consts  --      0.0725                 0.1163                 0.0909
 IR Inten    --      4.5506                 5.7072                 5.7754

                     13                     14                     15
                      A                      A                      A
 Frequencies --    249.9010               266.5838               296.4431
 Red. masses --      5.3006                 3.0209                 2.4106
 Frc consts  --      0.1950                 0.1265                 0.1248
 IR Inten    --      3.5512                 8.3321                 0.2661

                     16                     17                     18
                      A                      A                      A
 Frequencies --    342.2007               372.9967               401.2208
 Red. masses --      5.0131                 2.0315                 2.1744
 Frc consts  --      0.3459                 0.1665                 0.2062
 IR Inten    --      4.3132                 0.0740                 1.3574

                     19                     20                     21
                      A                      A                      A
 Frequencies --    415.8899               442.3713               461.0570
 Red. masses --      3.7032                 3.7509                 3.5344
 Frc consts  --      0.3774                 0.4325                 0.4427
 IR Inten    --      1.1337                 4.6894                 4.6117

                     22                     23                     24
                      A                      A                      A
 Frequencies --    484.9128               497.4478               521.7648
 Red. masses --      3.3414                 4.2212                 5.9523
 Frc consts  --      0.4629                 0.6154                 0.9547
 IR Inten    --      1.1285                 4.1893                 2.7733

                     25                     26                     27
                      A                      A                      A
 Frequencies --    534.8072               558.8785               586.4473
 Red. masses --      6.6653                 3.1494                 4.4810
 Frc consts  --      1.1232                 0.5796                 0.9080
 IR Inten    --      0.1194                 0.4509                 4.5139

                     28                     29                     30
                      A                      A                      A
 Frequencies --    617.3976               635.2252               658.3176
 Red. masses --      4.2178                 4.3258                 4.2063
 Frc consts  --      0.9473                 1.0284                 1.0740
 IR Inten    --      1.2651                 9.7050                 8.4053

                     31                     32                     33
                      A                      A                      A
 Frequencies --    681.2553               726.6688               747.4022
 Red. masses --      3.4065                 3.7693                 2.8606
 Frc consts  --      0.9315                 1.1727                 0.9415
 IR Inten    --      5.6006                 2.4320                 8.1067

                     34                     35                     36
                      A                      A                      A
 Frequencies --    756.6522               772.7806               788.4918
 Red. masses --      1.8309                 2.4803                 3.3339
 Frc consts  --      0.6176                 0.8727                 1.2212
 IR Inten    --     17.5121                48.5580                 9.5246

                     37                     38                     39
                      A                      A                      A
 Frequencies --    806.8876               812.2276               815.1012
 Red. masses --      2.3844                 4.2233                 1.5934
 Frc consts  --      0.9147                 1.6416                 0.6237
 IR Inten    --     12.3623                 9.0570                 8.6532

                     40                     41                     42
                      A                      A                      A
 Frequencies --    833.6312               863.3823               865.4486
 Red. masses --      2.7430                 2.7338                 1.6802
 Frc consts  --      1.1231                 1.2007                 0.7415
 IR Inten    --      2.4117                 3.2835                17.8931

                     43                     44                     45
                      A                      A                      A
 Frequencies --    875.4867               884.3456               903.1753
 Red. masses --      2.2378                 2.1824                 2.1078
 Frc consts  --      1.0106                 1.0056                 1.0131
 IR Inten    --      5.9904                21.4821                21.6561

                     46                     47                     48
                      A                      A                      A
 Frequencies --    917.3681               925.7679               962.3530
 Red. masses --      1.7909                 2.1758                 2.6832
 Frc consts  --      0.8880                 1.0987                 1.4641
 IR Inten    --      0.3185                14.8087                12.6746

                     49                     50                     51
                      A                      A                      A
 Frequencies --    973.8713               976.7780               979.9795
 Red. masses --      1.4341                 1.8348                 1.9470
 Frc consts  --      0.8013                 1.0314                 1.1017
 IR Inten    --      1.0306                15.3628                 2.2249

                     52                     53                     54
                      A                      A                      A
 Frequencies --    992.7406              1020.9798              1022.2137
 Red. masses --      1.4321                 1.3374                 3.9476
 Frc consts  --      0.8315                 0.8214                 2.4303
 IR Inten    --      0.5995                 0.2829                 6.1470

                     55                     56                     57
                      A                      A                      A
 Frequencies --   1040.7488              1052.1150              1062.4333
 Red. masses --      2.0770                 2.3666                 2.0825
 Frc consts  --      1.3255                 1.5435                 1.3850
 IR Inten    --     11.4240                 6.4677                29.6870

                     58                     59                     60
                      A                      A                      A
 Frequencies --   1074.9682              1081.4461              1116.1292
 Red. masses --      1.9024                 1.9108                 2.0524
 Frc consts  --      1.2952                 1.3166                 1.5064
 IR Inten    --      4.3733                 1.0039                 7.8713

                     61                     62                     63
                      A                      A                      A
 Frequencies --   1134.2314              1142.1326              1152.0451
 Red. masses --      1.5063                 1.9916                 1.9724
 Frc consts  --      1.1418                 1.5307                 1.5424
 IR Inten    --      3.6937                 9.5654                 4.1027

                     64                     65                     66
                      A                      A                      A
 Frequencies --   1156.2051              1163.7989              1171.3551
 Red. masses --      1.5707                 1.3070                 1.3136
 Frc consts  --      1.2371                 1.0430                 1.0619
 IR Inten    --     14.7735                 9.9209                88.2747

                     67                     68                     69
                      A                      A                      A
 Frequencies --   1201.3008              1207.5598              1224.0270
 Red. masses --      1.2056                 1.5215                 1.7415
 Frc consts  --      1.0251                 1.3072                 1.5373
 IR Inten    --     13.1550                11.1911                 8.1196

                     70                     71                     72
                      A                      A                      A
 Frequencies --   1239.2944              1252.1502              1253.1225
 Red. masses --      1.3864                 1.5579                 1.4278
 Frc consts  --      1.2546                 1.4392                 1.3210
 IR Inten    --     11.9145                 1.1497                 1.0587

                     73                     74                     75
                      A                      A                      A
 Frequencies --   1257.2944              1268.9154              1283.8393
 Red. masses --      1.3514                 1.6206                 1.4928
 Frc consts  --      1.2586                 1.5374                 1.4497
 IR Inten    --     34.1775                12.2189                20.9911

                     76                     77                     78
                      A                      A                      A
 Frequencies --   1288.4985              1305.2862              1324.0738
 Red. masses --      2.0323                 1.2871                 1.4987
 Frc consts  --      1.9879                 1.2921                 1.5480
 IR Inten    --      1.8344                30.3132                19.8085

                     79                     80                     81
                      A                      A                      A
 Frequencies --   1343.3943              1346.4530              1351.6947
 Red. masses --      1.2773                 1.2890                 1.4086
 Frc consts  --      1.3581                 1.3768                 1.5163
 IR Inten    --      8.5902                 4.9860                23.4636

                     82                     83                     84
                      A                      A                      A
 Frequencies --   1356.9257              1378.6729              1382.3671
 Red. masses --      1.4223                 1.4551                 1.4501
 Frc consts  --      1.5430                 1.6295                 1.6327
 IR Inten    --     10.6742                 3.5988                 1.1325

                     85                     86                     87
                      A                      A                      A
 Frequencies --   1390.9651              1400.8201              1403.8482
 Red. masses --      1.7500                 2.3101                 1.5947
 Frc consts  --      1.9949                 2.6709                 1.8517
 IR Inten    --     20.8689                 3.4703                 6.2343

                     88                     89                     90
                      A                      A                      A
 Frequencies --   1415.0860              1417.3857              1432.4837
 Red. masses --      1.4396                 1.3956                 2.2597
 Frc consts  --      1.6984                 1.6519                 2.7320
 IR Inten    --      1.4522                32.7676                 1.1933

                     91                     92                     93
                      A                      A                      A
 Frequencies --   1440.5147              1451.2549              1495.4361
 Red. masses --      1.2202                 2.3492                 2.3053
 Frc consts  --      1.4918                 2.9151                 3.0375
 IR Inten    --      4.3231                 4.3635                 1.9268

                     94                     95                     96
                      A                      A                      A
 Frequencies --   1513.8573              1516.4529              1522.6264
 Red. masses --      1.0639                 1.0559                 1.0750
 Frc consts  --      1.4365                 1.4306                 1.4684
 IR Inten    --      6.9206                 6.8873                 9.3455

                     97                     98                     99
                      A                      A                      A
 Frequencies --   1527.0477              1538.4803              1548.6872
 Red. masses --      1.0706                 1.0704                 1.0839
 Frc consts  --      1.4709                 1.4927                 1.5317
 IR Inten    --     21.2356                18.7267                 2.5516

                    100                    101                    102
                      A                      A                      A
 Frequencies --   1578.0694              1605.8941              1656.2703
 Red. masses --      4.8717                 4.4282                 6.4241
 Frc consts  --      7.1479                 6.7284                10.3830
 IR Inten    --     10.3309                60.4529                 6.2281

                    103                    104                    105
                      A                      A                      A
 Frequencies --   1658.7121              3109.2767              3110.1487
 Red. masses --      6.5424                 1.0852                 1.0857
 Frc consts  --     10.6055                 6.1813                 6.1874
 IR Inten    --     14.8480                11.7247                23.7243

                    106                    107                    108
                      A                      A                      A
 Frequencies --   3117.2608              3126.1685              3127.7997
 Red. masses --      1.0379                 1.0636                 1.0614
 Frc consts  --      5.9425                 6.1244                 6.1180
 IR Inten    --     13.8662                12.2506                 6.3613

                    109                    110                    111
                      A                      A                      A
 Frequencies --   3139.1428              3142.7615              3144.2050
 Red. masses --      1.0835                 1.0702                 1.0857
 Frc consts  --      6.2905                 6.2276                 6.3237
 IR Inten    --      7.2937                 8.9083                 1.8650

                    112                    113                    114
                      A                      A                      A
 Frequencies --   3147.1541              3160.3266              3174.9069
 Red. masses --      1.0673                 1.1028                 1.1015
 Frc consts  --      6.2286                 6.4898                 6.5416
 IR Inten    --      6.7963                12.1031                 7.1358

                    115                    116                    117
                      A                      A                      A
 Frequencies --   3178.5246              3187.4005              3196.4673
 Red. masses --      1.1100                 1.1023                 1.1025
 Frc consts  --      6.6074                 6.5980                 6.6368
 IR Inten    --      3.6160                13.5478                24.4444

                    118                    119                    120
                      A                      A                      A
 Frequencies --   3205.0832              3264.3768              3271.7311
 Red. masses --      1.1047                 1.0873                 1.0877
 Frc consts  --      6.6863                 6.8265                 6.8599
 IR Inten    --      0.1412                 2.8296                 8.4408

                    121                    122                    123
                      A                      A                      A
 Frequencies --   3277.4810              3286.3213              3289.7397
 Red. masses --      1.0936                 1.0962                 1.0948
 Frc consts  --      6.9213                 6.9754                 6.9807
 IR Inten    --      7.4947                 8.1242                 5.2864

                    124                    125                    126
                      A                      A                      A
 Frequencies --   3300.9062              3603.3453              3880.1423
 Red. masses --      1.0929                 1.0790                 1.0664
 Frc consts  --      7.0162                 8.2542                 9.4592
 IR Inten    --     14.6999                68.1088                99.6773

 - Thermochemistry -
 -------------------
 Temperature   298.150 Kelvin.  Pressure   1.00000 Atm.
 Atom     1 has atomic number  8 and mass  15.99491

 Molecular mass:   283.18104 amu.
 Principal axes and moments of inertia in atomic units:
                           1         2         3
     Eigenvalues --  3185.329909457.12875**********
           X            0.99999  -0.00024  -0.00545
           Y            0.00029   0.99995   0.00987
           Z            0.00544  -0.00987   0.99994
 This molecule is an asymmetric top.
 Rotational symmetry number  1.
 Warning -- assumption of classical behavior for rotation
           may cause significant error
 Rotational temperatures (Kelvin)      0.02719     0.00916     0.00839
 Rotational constants (GHZ):           0.56658     0.19083     0.17491
    2 imaginary frequencies ignored.
 Zero-point vibrational energy    1017955.2 (Joules/Mol)
                                  243.29714 (Kcal/Mol)
 Warning -- explicit consideration of  26 degrees of freedom as
           vibrations may cause significant error
 Vibrational temperatures:     23.48    48.68   105.66   123.28   182.88
          (Kelvin)            242.46   285.18   294.92   328.72   340.08
                              359.55   383.55   426.52   492.35   536.66
                              577.27   598.37   636.47   663.36   697.68
                              715.72   750.70   769.47   804.10   843.77
                              888.30   913.95   947.17   980.17  1045.51
                             1075.35  1088.65  1111.86  1134.46  1160.93
                             1168.61  1172.75  1199.41  1242.21  1245.19
                             1259.63  1272.38  1299.47  1319.89  1331.97
                             1384.61  1401.18  1405.37  1409.97  1428.33
                             1468.96  1470.74  1497.41  1513.76  1528.60
                             1546.64  1555.96  1605.86  1631.91  1643.27
                             1657.54  1663.52  1674.45  1685.32  1728.40
                             1737.41  1761.10  1783.07  1801.56  1802.96
                             1808.97  1825.69  1847.16  1853.86  1878.02
                             1905.05  1932.84  1937.25  1944.79  1952.31
                             1983.60  1988.92  2001.29  2015.47  2019.82
                             2035.99  2039.30  2061.02  2072.58  2088.03
                             2151.60  2178.10  2181.84  2190.72  2197.08
                             2213.53  2228.22  2270.49  2310.52  2383.00
                             2386.52  4473.56  4474.81  4485.04  4497.86
                             4500.21  4516.53  4521.73  4523.81  4528.05
                             4547.01  4567.98  4573.19  4585.96  4599.00
                             4611.40  4696.71  4707.29  4715.56  4728.28
                             4733.20  4749.27  5184.41  5582.66

 Zero-point correction=                           0.387719 (Hartree/Particle)
 Thermal correction to Energy=                    0.404301
 Thermal correction to Enthalpy=                  0.405245
 Thermal correction to Gibbs Free Energy=         0.342769
 Sum of electronic and zero-point Energies=           -883.535041
 Sum of electronic and thermal Energies=              -883.518459
 Sum of electronic and thermal Enthalpies=            -883.517515
 Sum of electronic and thermal Free Energies=         -883.579991

                     E (Thermal)             CV                S
                      KCal/Mol        Cal/Mol-Kelvin    Cal/Mol-Kelvin
 Total                  253.703             69.595            131.492
 Electronic               0.000              0.000              0.000
 Translational            0.889              2.981             42.821
 Rotational               0.889              2.981             34.096
 Vibrational            251.925             63.634             54.576
 Vibration     1          0.593              1.986              7.038
 Vibration     2          0.594              1.983              5.591
 Vibration     3          0.599              1.967              4.059
 Vibration     4          0.601              1.959              3.756
 Vibration     5          0.611              1.926              2.989
 Vibration     6          0.625              1.881              2.452
 Vibration     7          0.637              1.842              2.150
 Vibration     8          0.640              1.833              2.088
 Vibration     9          0.651              1.798              1.891
 Vibration    10          0.655              1.785              1.830
 Vibration    11          0.663              1.763              1.731
 Vibration    12          0.672              1.734              1.618
 Vibration    13          0.690              1.680              1.437
 Vibration    14          0.721              1.591              1.202
 Vibration    15          0.744              1.528              1.067
 Vibration    16          0.767              1.467              0.958
 Vibration    17          0.779              1.436              0.906
 Vibration    18          0.802              1.378              0.819
 Vibration    19          0.819              1.336              0.763
 Vibration    20          0.841              1.284              0.697
 Vibration    21          0.853              1.256              0.665
 Vibration    22          0.877              1.202              0.606
 Vibration    23          0.890              1.173              0.577
 Vibration    24          0.914              1.120              0.526
 Vibration    25          0.944              1.061              0.474
 Vibration    26          0.977              0.995              0.421

 Normal termination of Gaussian 16 at Sat Dec  9 19:17:23 2023.
