 Gaussian 16, Revision C.01,
 Gaussian 16:  ES64L-G16RevC.01  3-Jul-2019

 -----------------------------------------------------------
 # m062x 6-31g(d) scrf=(iefpcm,solvent=benzene) freq=noraman
 -----------------------------------------------------------

 ------------
 Structure506
 ------------
 Symbolic Z-matrix:
 Charge =  0 Multiplicity = 1

                         Standard orientation:
 ---------------------------------------------------------------------
 Center     Atomic      Atomic             Coordinates (Angstroms)
 Number     Number       Type             X           Y           Z
 ---------------------------------------------------------------------
      1          6           0       -5.936964    0.594955    0.005815
      2          6           0       -4.989962    1.615013    0.086935
      3          6           0       -3.632757    1.301140    0.049139
      4          6           0       -3.231108   -0.031160   -0.069232
      5          6           0       -4.182467   -1.050202   -0.151428
      6          6           0       -5.539596   -0.735988   -0.113498
      7          1           0       -6.989672    0.838795    0.033919
      8          1           0       -5.305121    2.644564    0.177128
      9          1           0       -2.897068    2.091033    0.109347
     10          6           0       -1.813698   -0.359119   -0.108093
     11          1           0       -3.872256   -2.081518   -0.246465
     12          1           0       -6.279011   -1.521178   -0.178077
     13          6           0       -0.622842   -0.628570   -0.152643
     14          6           0        0.917797   -0.927979   -0.186054
     15          8           0        1.481308   -1.380035   -1.181219
     16          6           0        1.694012   -0.653619    1.108461
     17          1           0        1.454580    0.375665    1.378485
     18          1           0        1.292038   -1.251921    1.924375
     19          6           0        3.245845   -0.792206    1.025943
     20          1           0        3.678486   -0.951812    2.011961
     21          1           0        3.486360   -1.701296    0.473113
     22          6           0        3.974065    0.344029    0.304097
     23          8           0        3.439528    1.434109    0.101021
     24          8           0        5.221304   -0.000214   -0.053542
     25          6           0        6.036189    0.925077   -0.759197
     26          1           0        7.009189    0.480798   -0.968846
     27          1           0        6.195534    1.833796   -0.176260
     28          1           0        5.578736    1.203969   -1.710228
 ---------------------------------------------------------------------

 SCF Done:  E(RM062X) =  -727.909778776     A.U. after   14 cycles

 The electronic state is 1-A.
 Alpha  occ. eigenvalues --  -19.69274 -19.65702 -19.63353 -10.69078 -10.68312
 Alpha  occ. eigenvalues --  -10.60132 -10.58751 -10.57586 -10.57109 -10.56886
 Alpha  occ. eigenvalues --  -10.56819 -10.56552 -10.56546 -10.56154 -10.56074
 Alpha  occ. eigenvalues --  -10.56038  -1.22940  -1.17305  -1.13291  -0.97563
 Alpha  occ. eigenvalues --   -0.90075  -0.88709  -0.85316  -0.84552  -0.82698
 Alpha  occ. eigenvalues --   -0.77321  -0.71347  -0.69947  -0.67371  -0.64522
 Alpha  occ. eigenvalues --   -0.61748  -0.58791  -0.58191  -0.56426  -0.56100
 Alpha  occ. eigenvalues --   -0.55398  -0.52976  -0.52676  -0.52120  -0.50844
 Alpha  occ. eigenvalues --   -0.49811  -0.48694  -0.47874  -0.45811  -0.44576
 Alpha  occ. eigenvalues --   -0.43515  -0.42473  -0.42068  -0.41866  -0.41716
 Alpha  occ. eigenvalues --   -0.37529  -0.37116  -0.35083  -0.34604  -0.34362
 Alpha  occ. eigenvalues --   -0.31502  -0.29264
 Alpha virt. eigenvalues --   -0.01936   0.00591   0.02444   0.05321   0.10679
 Alpha virt. eigenvalues --    0.13404   0.13572   0.14756   0.16542   0.16966
 Alpha virt. eigenvalues --    0.17641   0.18901   0.19715   0.20394   0.20976

 Mulliken charges:
               1
     1  C   -0.162100
     2  C   -0.171938
     3  C   -0.151834
     4  C    0.015286
     5  C   -0.150876
     6  C   -0.172064
     7  H    0.179665
     8  H    0.184095
     9  H    0.193900
    10  C   -0.019274
    11  H    0.192745
    12  H    0.183735
    13  C   -0.163039
    14  C    0.431375
    15  O   -0.434051
    16  C   -0.390701
    17  H    0.216201
    18  H    0.212673
    19  C   -0.399571
    20  H    0.214787
    21  H    0.211281
    22  C    0.649666
    23  O   -0.508266
    24  O   -0.478745
    25  C   -0.255454
    26  H    0.195757
    27  H    0.185659
    28  H    0.191090
 Sum of Mulliken charges =  -0.00000

 Dipole moment (field-independent basis, Debye):
    X=             -0.8409    Y=              0.0054    Z=              2.4418  Tot=              2.5825
 Quadrupole moment (field-independent basis, Debye-Ang):
   XX=            -55.4174   YY=            -89.6725   ZZ=            -93.5639
   XY=             -0.3225   XZ=              1.1579   YZ=             -4.1404

  Exact polarizability:     254.122     -18.351     140.843      -8.121       4.720      86.183
 Approx polarizability:     240.550     -23.790     168.268     -10.933       8.825     101.931

 ******    2 imaginary frequencies (negative Signs) ******

                      1                      2                      3
                      A                      A                      A
 Frequencies --   -176.3719               -17.6669                45.3793
 Red. masses --      1.0607                 3.7676                 5.7718
 Frc consts  --      0.0194                 0.0007                 0.0070
 IR Inten    --      0.1435                 0.3591                 1.0051

                      4                      5                      6
                      A                      A                      A
 Frequencies --     52.6335                78.7562               115.4167
 Red. masses --      4.0559                 3.9854                 6.5622
 Frc consts  --      0.0066                 0.0146                 0.0515
 IR Inten    --      1.0365                 1.4321                 1.7143

                      7                      8                      9
                      A                      A                      A
 Frequencies --    121.8054               150.2886               169.5632
 Red. masses --      7.5742                 4.7685                 3.3458
 Frc consts  --      0.0662                 0.0635                 0.0567
 IR Inten    --      3.2390                 0.3721                 4.8921

                     10                     11                     12
                      A                      A                      A
 Frequencies --    187.8907               213.9883               267.1403
 Red. masses --      2.1756                 2.8664                 6.0778
 Frc consts  --      0.0453                 0.0773                 0.2556
 IR Inten    --      5.4077                 4.0379                 0.9565

                     13                     14                     15
                      A                      A                      A
 Frequencies --    280.9968               314.6919               367.0529
 Red. masses --      6.8511                 3.8772                 5.5278
 Frc consts  --      0.3187                 0.2262                 0.4388
 IR Inten    --      1.0130                47.5795                 1.0891

                     16                     17                     18
                      A                      A                      A
 Frequencies --    409.7592               421.4206               518.0416
 Red. masses --      2.8467                 4.8918                 2.9767
 Frc consts  --      0.2816                 0.5119                 0.4707
 IR Inten    --      0.1584                10.4570                 3.8113

                     19                     20                     21
                      A                      A                      A
 Frequencies --    522.9374               544.9277               568.5719
 Red. masses --      4.4336                 3.1030                 5.4157
 Frc consts  --      0.7143                 0.5429                 1.0315
 IR Inten    --      9.1939                 4.5073                 5.7841

                     22                     23                     24
                      A                      A                      A
 Frequencies --    574.5259               599.2749               634.4228
 Red. masses --      5.4454                 5.7038                 6.6381
 Frc consts  --      1.0590                 1.2069                 1.5742
 IR Inten    --      4.3997                 6.8957                 0.0373

                     25                     26                     27
                      A                      A                      A
 Frequencies --    681.4598               698.9758               721.1622
 Red. masses --      4.5525                 1.7596                 5.1216
 Frc consts  --      1.2456                 0.5065                 1.5693
 IR Inten    --      1.7766                38.0396                18.3723

                     28                     29                     30
                      A                      A                      A
 Frequencies --    769.5305               814.8400               848.4028
 Red. masses --      2.0048                 5.7343                 3.7513
 Frc consts  --      0.6995                 2.2432                 1.5909
 IR Inten    --     35.0753                17.4801                25.7127

                     31                     32                     33
                      A                      A                      A
 Frequencies --    855.1106               938.1090               940.4723
 Red. masses --      1.2535                 3.2543                 1.4032
 Frc consts  --      0.5400                 1.6874                 0.7312
 IR Inten    --      0.0386               122.0187                 4.4342

                     34                     35                     36
                      A                      A                      A
 Frequencies --    966.4199               983.7351               998.5508
 Red. masses --      3.3300                 1.3805                 3.8065
 Frc consts  --      1.8324                 0.7871                 2.2362
 IR Inten    --      6.5752                 0.0319                77.6141

                     37                     38                     39
                      A                      A                      A
 Frequencies --   1012.2778              1021.3089              1042.7375
 Red. masses --      1.3075                 6.0727                 3.4436
 Frc consts  --      0.7894                 3.7321                 2.2060
 IR Inten    --      0.0739                 8.0365               271.7113

                     40                     41                     42
                      A                      A                      A
 Frequencies --   1061.5829              1096.8220              1110.4159
 Red. masses --      2.0851                 3.2084                 1.4780
 Frc consts  --      1.3845                 2.2741                 1.0737
 IR Inten    --     19.2222                17.9629                 4.2227

                     43                     44                     45
                      A                      A                      A
 Frequencies --   1178.9639              1188.3987              1198.8140
 Red. masses --      1.1101                 1.2854                 1.1211
 Frc consts  --      0.9091                 1.0696                 0.9493
 IR Inten    --      0.1529                 1.0688                 0.1103

                     46                     47                     48
                      A                      A                      A
 Frequencies --   1204.7766              1208.3824              1227.1374
 Red. masses --      1.3932                 1.2800                 3.4692
 Frc consts  --      1.1915                 1.1012                 3.0779
 IR Inten    --      2.6509                 6.5093                34.6818

                     49                     50                     51
                      A                      A                      A
 Frequencies --   1237.6012              1278.9628              1331.4395
 Red. masses --      1.3695                 2.8160                 2.5814
 Frc consts  --      1.2359                 2.7140                 2.6962
 IR Inten    --     64.0155               419.3545                 0.4061

                     52                     53                     54
                      A                      A                      A
 Frequencies --   1348.2750              1362.2403              1402.3097
 Red. masses --      1.9444                 1.6074                 1.9636
 Frc consts  --      2.0826                 1.7574                 2.2751
 IR Inten    --      1.5202               109.4290               174.2940

                     55                     56                     57
                      A                      A                      A
 Frequencies --   1456.0139              1473.2760              1493.6337
 Red. masses --      1.0840                 1.0948                 2.3500
 Frc consts  --      1.3540                 1.4001                 3.0890
 IR Inten    --     39.6282                30.8615                 8.7178

                     58                     59                     60
                      A                      A                      A
 Frequencies --   1510.2948              1524.9590              1527.0382
 Red. masses --      1.2488                 1.0419                 1.0458
 Frc consts  --      1.6783                 1.4276                 1.4368
 IR Inten    --     14.5682                 9.9651                 8.9265

                     61                     62                     63
                      A                      A                      A
 Frequencies --   1542.9423              1672.3210              1679.8917
 Red. masses --      2.4097                 6.2547                 6.0863
 Frc consts  --      3.3800                10.3061                10.1197
 IR Inten    --     30.3307                 0.8837                 5.1023

                     64                     65                     66
                      A                      A                      A
 Frequencies --   1708.9210              1739.3747              2261.3449
 Red. masses --     10.9086                 9.4257                11.9987
 Frc consts  --     18.7699                16.8016                36.1509
 IR Inten    --    322.6786               247.6902               185.4036

                     67                     68                     69
                      A                      A                      A
 Frequencies --   3116.8858              3152.7861              3157.2995
 Red. masses --      1.0331                 1.0677                 1.0636
 Frc consts  --      5.9131                 6.2530                 6.2470
 IR Inten    --     31.7372                 1.8523                14.7006

                     70                     71                     72
                      A                      A                      A
 Frequencies --   3188.6554              3197.5316              3199.7658
 Red. masses --      1.1056                 1.0990                 1.0955
 Frc consts  --      6.6232                 6.6206                 6.6082
 IR Inten    --     22.8903                 1.6934                 1.5490

                     73                     74                     75
                      A                      A                      A
 Frequencies --   3206.9322              3270.0340              3276.2381
 Red. masses --      1.1057                 1.0863                 1.0895
 Frc consts  --      6.7000                 6.8436                 6.8901
 IR Inten    --     15.7392                 0.0454                 0.1394

                     76                     77                     78
                      A                      A                      A
 Frequencies --   3280.5822              3289.4077              3295.4610
 Red. masses --      1.0923                 1.0956                 1.0986
 Frc consts  --      6.9261                 6.9844                 7.0295
 IR Inten    --      7.1290                15.2848                13.9067

 - Thermochemistry -
 -------------------
 Temperature   298.150 Kelvin.  Pressure   1.00000 Atm.
 Atom     1 has atomic number  6 and mass  12.00000

 Molecular mass:   216.07864 amu.
 Principal axes and moments of inertia in atomic units:
                           1         2         3
     Eigenvalues --  1009.76099********************
           X            1.00000   0.00079  -0.00101
           Y           -0.00083   0.99907  -0.04303
           Z            0.00098   0.04303   0.99907
 This molecule is an asymmetric top.
 Rotational symmetry number  1.
 Warning -- assumption of classical behavior for rotation
           may cause significant error
 Rotational temperatures (Kelvin)      0.08578     0.00703     0.00676
 Rotational constants (GHZ):           1.78730     0.14653     0.14095
    2 imaginary frequencies ignored.
 Zero-point vibrational energy     580848.5 (Joules/Mol)
                                  138.82613 (Kcal/Mol)
 Warning -- explicit consideration of  21 degrees of freedom as
           vibrations may cause significant error
 Vibrational temperatures:     65.29    75.73   113.31   166.06   175.25
          (Kelvin)            216.23   243.96   270.33   307.88   384.36
                              404.29   452.77   528.11   589.55   606.33
                              745.35   752.39   784.03   818.05   826.61
                              862.22   912.79   980.47  1005.67  1037.59
                             1107.18  1172.37  1220.66  1230.31  1349.73
                             1353.13  1390.46  1415.38  1436.69  1456.44
                             1469.44  1500.27  1527.38  1578.08  1597.64
                             1696.27  1709.84  1724.83  1733.40  1738.59
                             1765.58  1780.63  1840.14  1915.64  1939.87
                             1959.96  2017.61  2094.88  2119.72  2149.01
                             2172.98  2194.08  2197.07  2219.95  2406.10
                             2416.99  2458.76  2502.57  3253.57  4484.50
                             4536.16  4542.65  4587.76  4600.53  4603.75
                             4614.06  4704.85  4713.78  4720.03  4732.72
                             4741.43

 Zero-point correction=                           0.221234 (Hartree/Particle)
 Thermal correction to Energy=                    0.235019
 Thermal correction to Enthalpy=                  0.235963
 Thermal correction to Gibbs Free Energy=         0.179475
 Sum of electronic and zero-point Energies=           -727.688545
 Sum of electronic and thermal Energies=              -727.674760
 Sum of electronic and thermal Enthalpies=            -727.673816
 Sum of electronic and thermal Free Energies=         -727.730303

                     E (Thermal)             CV                S
                      KCal/Mol        Cal/Mol-Kelvin    Cal/Mol-Kelvin
 Total                  147.477             52.128            118.888
 Electronic               0.000              0.000              0.000
 Translational            0.889              2.981             42.015
 Rotational               0.889              2.981             33.432
 Vibrational            145.699             46.167             43.442
 Vibration     1          0.595              1.979              5.009
 Vibration     2          0.596              1.977              4.716
 Vibration     3          0.600              1.963              3.922
 Vibration     4          0.608              1.937              3.176
 Vibration     5          0.609              1.931              3.072
 Vibration     6          0.618              1.902              2.669
 Vibration     7          0.625              1.880              2.440
 Vibration     8          0.633              1.856              2.249
 Vibration     9          0.644              1.820              2.009
 Vibration    10          0.672              1.733              1.615
 Vibration    11          0.681              1.709              1.528
 Vibration    12          0.702              1.646              1.338
 Vibration    13          0.740              1.540              1.092
 Vibration    14          0.774              1.449              0.927
 Vibration    15          0.784              1.424              0.887
 Vibration    16          0.873              1.210              0.615
 Vibration    17          0.878              1.199              0.603
 Vibration    18          0.900              1.151              0.555
 Vibration    19          0.925              1.099              0.507
 Vibration    20          0.931              1.086              0.496
 Vibration    21          0.957              1.033              0.451

 1\1\GINC-NODE-003\Freq\RM062X\6-31G(d)\C13H12O3\JP2658\09-Dec-2023\0\\
 # m062x 6-31g(d) scrf=(iefpcm,solvent=benzene) freq=noraman\\Structure
 506\\0,1\C,1.384,-0.8504,-0.0986\C,1.1678,0.3198,-0.8251\C,-0.0943,0.9
 106,-0.8221\C,-1.1325,0.3271,-0.0927\C,-0.912,-0.8444,0.6348\C,0.3502,
 -1.435,0.6315\H,2.3634,-1.3078,-0.1001\H,1.9742,0.7686,-1.387\H,-0.263
 1,1.8194,-1.3828\C,-2.4508,0.9437,-0.09\H,-1.7144,-1.2948,1.2024\H,0.5
 255,-2.3407,1.194\C,-3.5526,1.4716,-0.0808\C,-4.9557,2.1748,-0.1147\O,
 -5.4591,2.6927,0.8806\C,-5.6933,2.1605,-1.4598\H,-4.9847,2.5638,-2.184

 Normal termination of Gaussian 16 at Sat Dec  9 19:14:37 2023.
