 Gaussian 16, Revision C.01,
 Gaussian 16:  ES64L-G16RevC.01  3-Jul-2019

 -----------------------------------------------------------
 # m062x 6-31g(d) scrf=(iefpcm,solvent=benzene) freq=noraman
 -----------------------------------------------------------

 -------------
 Structure1280
 -------------
 Symbolic Z-matrix:
 Charge =  0 Multiplicity = 1

                         Standard orientation:
 ---------------------------------------------------------------------
 Center     Atomic      Atomic             Coordinates (Angstroms)
 Number     Number       Type             X           Y           Z
 ---------------------------------------------------------------------
      1          7           0        0.618432   -0.407351    0.504975
      2          6           0       -1.488944    0.429597    1.367937
      3          7           0       -1.387022    1.593355    0.448299
      4          6           0        0.959450    1.009997    0.196686
      5          1           0       -1.039893    0.747958    2.311069
      6          6           0       -2.953530   -0.001414    1.661318
      7          1           0        1.277410    1.457143    1.140291
      8          6           0        2.110851    1.167616   -0.831998
      9          8           0       -0.933092   -1.969835    0.897041
     10          6           0       -0.598302   -0.789133    0.928170
     11          8           0       -0.295319    2.692741   -1.161960
     12          6           0       -0.273940    1.872611   -0.252011
     13          1           0        1.224962   -1.147024    0.185500
     14          1           0       -2.220862    2.066855    0.135516
     15          1           0        2.414013    2.213987   -0.911158
     16          1           0        1.759163    0.908565   -1.833280
     17          6           0        5.574079   -1.211602    0.096010
     18          6           0        4.661519   -1.665036   -0.854496
     19          6           0        3.542998   -0.893681   -1.159296
     20          6           0        3.340900    0.327575   -0.510378
     21          6           0        4.260463    0.778316    0.439780
     22          6           0        5.379143    0.006715    0.743883
     23          1           0        6.442852   -1.809759    0.331233
     24          1           0        4.822259   -2.609492   -1.354549
     25          1           0        2.838484   -1.246578   -1.899253
     26          1           0        4.112033    1.723151    0.942574
     27          1           0        6.093613    0.351628    1.477587
     28          1           0       -3.438945    0.796200    2.224725
     29          1           0       -2.963145   -0.858167    2.338641
     30          6           0       -3.782803   -0.309163    0.427319
     31          6           0       -4.878707    0.304239   -0.170252
     32          7           0       -5.287401   -0.318657   -1.263417
     33          6           0       -4.469991   -1.333536   -1.387982
     34          7           0       -3.536391   -1.381006   -0.387675
     35          1           0       -5.380041    1.194676    0.180821
     36          1           0       -4.478158   -2.078605   -2.169933
     37          1           0       -2.788888   -2.056777   -0.263845
 ---------------------------------------------------------------------

 SCF Done:  E(RM062X) =  -950.328771753     A.U. after   13 cycles

 The electronic state is 1-A.
 Alpha  occ. eigenvalues --  -19.63243 -19.62153 -14.81003 -14.80566 -14.80073
 Alpha  occ. eigenvalues --  -14.73512 -10.67814 -10.67002 -10.62582 -10.62357
 Alpha  occ. eigenvalues --  -10.59532 -10.58063 -10.57988 -10.56918 -10.56777
 Alpha  occ. eigenvalues --  -10.55896 -10.55853 -10.55813 -10.55765 -10.55586
 Alpha  occ. eigenvalues --  -10.55184  -1.18167  -1.16882  -1.12825  -1.06523
 Alpha  occ. eigenvalues --   -1.03279  -0.98091  -0.96989  -0.90311  -0.89181
 Alpha  occ. eigenvalues --   -0.85006  -0.84055  -0.82612  -0.76821  -0.75941
 Alpha  occ. eigenvalues --   -0.70826  -0.69732  -0.69345  -0.67203  -0.66381
 Alpha  occ. eigenvalues --   -0.64241  -0.61907  -0.61351  -0.59725  -0.58749
 Alpha  occ. eigenvalues --   -0.57994  -0.55379  -0.53458  -0.53298  -0.52017
 Alpha  occ. eigenvalues --   -0.51811  -0.50636  -0.49925  -0.49626  -0.49430
 Alpha  occ. eigenvalues --   -0.49114  -0.47794  -0.47103  -0.46498  -0.46273
 Alpha  occ. eigenvalues --   -0.44951  -0.44568  -0.43711  -0.43281  -0.40581
 Alpha  occ. eigenvalues --   -0.39893  -0.36633  -0.35688  -0.34420  -0.33850
 Alpha  occ. eigenvalues --   -0.32314  -0.31631  -0.31241  -0.30413  -0.26911
 Alpha virt. eigenvalues --    0.02168   0.02346   0.04126   0.05576   0.06926
 Alpha virt. eigenvalues --    0.11477   0.12479   0.13411   0.14007   0.15136
 Alpha virt. eigenvalues --    0.15363   0.15973   0.16868   0.17722   0.18451

 Mulliken charges:
               1
     1  N   -0.657750
     2  C   -0.052144
     3  N   -0.659415
     4  C   -0.051975
     5  H    0.212468
     6  C   -0.388001
     7  H    0.206857
     8  C   -0.383461
     9  O   -0.558459
    10  C    0.625181
    11  O   -0.539254
    12  C    0.633242
    13  H    0.376301
    14  H    0.374501
    15  H    0.206802
    16  H    0.194264
    17  C   -0.170506
    18  C   -0.164197
    19  C   -0.220530
    20  C    0.081679
    21  C   -0.192465
    22  C   -0.167038
    23  H    0.174532
    24  H    0.178839
    25  H    0.175740
    26  H    0.171618
    27  H    0.177826
    28  H    0.197605
    29  H    0.213994
    30  C    0.261558
    31  C   -0.099594
    32  N   -0.456696
    33  C    0.194347
    34  N   -0.647620
    35  H    0.159517
    36  H    0.192200
    37  H    0.400033
 Sum of Mulliken charges =  -0.00000

 Dipole moment (field-independent basis, Debye):
    X=              5.0742    Y=             -1.1836    Z=              3.6541  Tot=              6.3641
 Quadrupole moment (field-independent basis, Debye-Ang):
   XX=           -133.7211   YY=           -124.5998   ZZ=           -120.1321
   XY=             -2.6780   XZ=             -8.5332   YZ=             15.1503

  Exact polarizability:     230.826     -17.684     186.390      23.723      18.020     157.863
 Approx polarizability:     222.096     -20.265     225.686      30.488      20.180     192.234

 ******    2 imaginary frequencies (negative Signs) ******

                      1                      2                      3
                      A                      A                      A
 Frequencies --    -91.7701               -32.4031                32.8476
 Red. masses --      4.2250                 5.4660                 3.9898
 Frc consts  --      0.0210                 0.0034                 0.0025
 IR Inten    --      2.7496                 1.2736                 0.0368

                      4                      5                      6
                      A                      A                      A
 Frequencies --     40.9835                65.7865                71.8466
 Red. masses --      5.3898                 5.1137                 6.4065
 Frc consts  --      0.0053                 0.0130                 0.0195
 IR Inten    --      0.4028                 1.6188                 1.7259

                      7                      8                      9
                      A                      A                      A
 Frequencies --    115.9548               120.0827               136.5292
 Red. masses --      7.0122                 6.6353                 6.7932
 Frc consts  --      0.0555                 0.0564                 0.0746
 IR Inten    --      4.6278                 0.4907                 3.8991

                     10                     11                     12
                      A                      A                      A
 Frequencies --    176.8853               205.7973               210.9717
 Red. masses --      5.3385                 6.0069                 6.4308
 Frc consts  --      0.0984                 0.1499                 0.1686
 IR Inten    --      2.7976                 2.0854                 1.3936

                     13                     14                     15
                      A                      A                      A
 Frequencies --    250.7619               307.6712               322.5627
 Red. masses --      7.3153                 2.5191                 1.8166
 Frc consts  --      0.2710                 0.1405                 0.1114
 IR Inten    --      0.3230                12.0907                 1.2151

                     16                     17                     18
                      A                      A                      A
 Frequencies --    343.2477               371.5678               410.3882
 Red. masses --      2.0884                 2.1545                 2.4067
 Frc consts  --      0.1450                 0.1753                 0.2388
 IR Inten    --      2.6444                16.2302                61.0855

                     19                     20                     21
                      A                      A                      A
 Frequencies --    411.3174               426.6320               459.9679
 Red. masses --      2.7987                 2.2340                 3.6633
 Frc consts  --      0.2790                 0.2396                 0.4566
 IR Inten    --      1.3183                72.7727                71.1629

                     22                     23                     24
                      A                      A                      A
 Frequencies --    506.1831               513.9991               552.2540
 Red. masses --      6.1021                 2.8738                 4.2020
 Frc consts  --      0.9212                 0.4473                 0.7551
 IR Inten    --      2.6041                19.9374                 3.1305

                     25                     26                     27
                      A                      A                      A
 Frequencies --    569.6789               617.6878               628.5365
 Red. masses --      3.1696                 3.9439                 6.0777
 Frc consts  --      0.6061                 0.8866                 1.4147
 IR Inten    --     31.5260                 9.8765                 0.4904

                     28                     29                     30
                      A                      A                      A
 Frequencies --    632.4429               646.3315               655.8469
 Red. masses --      3.9838                 4.0611                 3.6831
 Frc consts  --      0.9388                 0.9995                 0.9334
 IR Inten    --      6.8097                53.7311                35.8171

                     31                     32                     33
                      A                      A                      A
 Frequencies --    670.2177               706.2322               722.0920
 Red. masses --      3.6740                 1.5356                 2.5403
 Frc consts  --      0.9724                 0.4513                 0.7804
 IR Inten    --     29.5315                43.9917                 7.5096

                     34                     35                     36
                      A                      A                      A
 Frequencies --    741.5931               755.8587               766.3136
 Red. masses --      1.4807                 2.5949                 2.7475
 Frc consts  --      0.4798                 0.8735                 0.9506
 IR Inten    --     92.2461                57.5443                 9.7551

                     37                     38                     39
                      A                      A                      A
 Frequencies --    823.1836               831.3180               851.4140
 Red. masses --      3.9522                 1.3986                 1.2783
 Frc consts  --      1.5779                 0.5695                 0.5459
 IR Inten    --      0.9940                17.3891                 0.3518

                     40                     41                     42
                      A                      A                      A
 Frequencies --    854.5347               867.4662               873.1796
 Red. masses --      1.9942                 2.4893                 1.9041
 Frc consts  --      0.8580                 1.1036                 0.8554
 IR Inten    --     15.2864                19.8976                22.7312

                     43                     44                     45
                      A                      A                      A
 Frequencies --    915.9693               926.7678               943.5781
 Red. masses --      2.7189                 1.5563                 4.5036
 Frc consts  --      1.3440                 0.7875                 2.3625
 IR Inten    --      9.6279                 8.2982                 7.9817

                     46                     47                     48
                      A                      A                      A
 Frequencies --    944.0216               977.1993              1009.2085
 Red. masses --      3.2965                 1.3896                 1.3331
 Frc consts  --      1.7309                 0.7818                 0.7999
 IR Inten    --      6.9955                 0.0727                 0.0923

                     49                     50                     51
                      A                      A                      A
 Frequencies --   1011.1894              1018.3941              1047.4553
 Red. masses --      3.3475                 5.6850                 2.6802
 Frc consts  --      2.0166                 3.4739                 1.7326
 IR Inten    --      4.2302                 1.2578                 0.4210

                     52                     53                     54
                      A                      A                      A
 Frequencies --   1056.3320              1059.5337              1098.9732
 Red. masses --      2.3088                 2.0774                 2.8986
 Frc consts  --      1.5179                 1.3740                 2.0626
 IR Inten    --     12.3206                 3.6355                25.1864

                     55                     56                     57
                      A                      A                      A
 Frequencies --   1106.7663              1118.1765              1123.6659
 Red. masses --      2.0845                 1.5498                 1.5336
 Frc consts  --      1.5044                 1.1417                 1.1409
 IR Inten    --      3.3744                38.3127                38.1679

                     58                     59                     60
                      A                      A                      A
 Frequencies --   1177.5277              1194.6329              1213.0413
 Red. masses --      1.1198                 1.1119                 1.4887
 Frc consts  --      0.9148                 0.9350                 1.2906
 IR Inten    --      0.0772                 0.2567                16.7449

                     61                     62                     63
                      A                      A                      A
 Frequencies --   1216.1862              1219.6824              1230.3062
 Red. masses --      1.5158                 1.3519                 2.4114
 Frc consts  --      1.3210                 1.1849                 2.1505
 IR Inten    --     24.1788                 3.8492                 0.5021

                     64                     65                     66
                      A                      A                      A
 Frequencies --   1279.5055              1291.0116              1301.0098
 Red. masses --      1.3219                 1.6001                 1.3089
 Frc consts  --      1.2751                 1.5713                 1.3053
 IR Inten    --      2.1235                17.2706                 4.7627

                     67                     68                     69
                      A                      A                      A
 Frequencies --   1314.0983              1340.0154              1343.9039
 Red. masses --      1.4467                 1.8421                 3.0301
 Frc consts  --      1.4720                 1.9489                 3.2243
 IR Inten    --      0.0953                 5.2897                 0.6826

                     70                     71                     72
                      A                      A                      A
 Frequencies --   1345.7993              1350.3496              1370.3486
 Red. masses --      1.5470                 1.2847                 1.5219
 Frc consts  --      1.6508                 1.3803                 1.6839
 IR Inten    --      0.4840                79.1680                 2.9220

                     73                     74                     75
                      A                      A                      A
 Frequencies --   1371.5737              1387.3363              1413.1827
 Red. masses --      1.7566                 1.6133                 1.5835
 Frc consts  --      1.9470                 1.8295                 1.8632
 IR Inten    --     49.9197                34.5587                14.9717

                     76                     77                     78
                      A                      A                      A
 Frequencies --   1455.3402              1466.0319              1492.1096
 Red. masses --      3.8729                 7.0865                 1.4212
 Frc consts  --      4.8329                 8.9736                 1.8642
 IR Inten    --     22.9656               498.9597                13.4889

                     79                     80                     81
                      A                      A                      A
 Frequencies --   1502.8352              1505.6417              1509.1511
 Red. masses --      2.6236                 1.4443                 1.6180
 Frc consts  --      3.4912                 1.9291                 2.1711
 IR Inten    --      2.6810                 5.7474                11.8251

                     82                     83                     84
                      A                      A                      A
 Frequencies --   1514.8449              1532.2495              1543.6733
 Red. masses --      4.4163                 5.0447                 2.4355
 Frc consts  --      5.9710                 6.9783                 3.4194
 IR Inten    --     34.5942                28.8461                14.4739

                     85                     86                     87
                      A                      A                      A
 Frequencies --   1636.2588              1677.4355              1688.4917
 Red. masses --      4.1627                 6.2403                 6.3134
 Frc consts  --      6.5665                10.3455                10.6051
 IR Inten    --     14.2987                 1.9267                 4.6664

                     88                     89                     90
                      A                      A                      A
 Frequencies --   1787.6857              1796.1067              3115.7853
 Red. masses --      9.5294                 9.7929                 1.0828
 Frc consts  --     17.9432                18.6134                 6.1937
 IR Inten    --    830.7211               316.6228                23.1819

                     91                     92                     93
                      A                      A                      A
 Frequencies --   3121.6575              3134.0780              3142.6426
 Red. masses --      1.0823                 1.0638                 1.0646
 Frc consts  --      6.2142                 6.1562                 6.1949
 IR Inten    --      9.4931                 8.9082                15.8855

                     94                     95                     96
                      A                      A                      A
 Frequencies --   3171.7082              3178.1106              3268.2349
 Red. masses --      1.1028                 1.1014                 1.0859
 Frc consts  --      6.5361                 6.5546                 6.8341
 IR Inten    --      7.7096                 5.6736                 2.2554

                     97                     98                     99
                      A                      A                      A
 Frequencies --   3273.1621              3280.0651              3287.8007
 Red. masses --      1.0885                 1.0915                 1.0953
 Frc consts  --      6.8711                 6.9188                 6.9758
 IR Inten    --      1.0046                14.8158                25.5629

                    100                    101                    102
                      A                      A                      A
 Frequencies --   3291.5568              3295.0514              3311.2292
 Red. masses --      1.0955                 1.0985                 1.0981
 Frc consts  --      6.9929                 7.0270                 7.0938
 IR Inten    --     14.3593                10.2142                 1.5220

                    103                    104                    105
                      A                      A                      A
 Frequencies --   3611.7837              3679.8463              3681.2236
 Red. masses --      1.0836                 1.0772                 1.0771
 Frc consts  --      8.3281                 8.5942                 8.6001
 IR Inten    --    221.8271               178.5513                13.1326

 - Thermochemistry -
 -------------------
 Temperature   298.150 Kelvin.  Pressure   1.00000 Atm.
 Atom     1 has atomic number  7 and mass  14.00307

 Molecular mass:   284.12733 amu.
 Principal axes and moments of inertia in atomic units:
                           1         2         3
     Eigenvalues --  2484.95914********************
           X            0.99999  -0.00275  -0.00294
           Y            0.00290   0.99847   0.05523
           Z            0.00278  -0.05524   0.99847
 This molecule is an asymmetric top.
 Rotational symmetry number  1.
 Warning -- assumption of classical behavior for rotation
           may cause significant error
 Rotational temperatures (Kelvin)      0.03486     0.00702     0.00660
 Rotational constants (GHZ):           0.72627     0.14618     0.13743
    2 imaginary frequencies ignored.
 Zero-point vibrational energy     795138.0 (Joules/Mol)
                                  190.04255 (Kcal/Mol)
 Warning -- explicit consideration of  24 degrees of freedom as
           vibrations may cause significant error
 Vibrational temperatures:     47.26    58.97    94.65   103.37   166.83
          (Kelvin)            172.77   196.44   254.50   296.10   303.54
                              360.79   442.67   464.10   493.86   534.60
                              590.46   591.79   613.83   661.79   728.28
                              739.53   794.57   819.64   888.71   904.32
                              909.94   929.93   943.62   964.29  1016.11
                             1038.93  1066.99  1087.51  1102.55  1184.38
                             1196.08  1224.99  1229.48  1248.09  1256.31
                             1317.88  1333.41  1357.60  1358.24  1405.97
                             1452.03  1454.88  1465.24  1507.05  1519.83
                             1524.43  1581.18  1592.39  1608.81  1616.70
                             1694.20  1718.81  1745.30  1749.82  1754.85
                             1770.14  1840.92  1857.48  1871.86  1890.69
                             1927.98  1933.58  1936.31  1942.85  1971.63
                             1973.39  1996.07  2033.25  2093.91  2109.29
                             2146.81  2162.24  2166.28  2171.33  2179.52
                             2204.57  2221.00  2354.21  2413.46  2429.36
                             2572.08  2584.20  4482.92  4491.37  4509.24
                             4521.56  4563.38  4572.59  4702.26  4709.35
                             4719.28  4730.41  4735.82  4740.84  4764.12
                             5196.55  5294.48  5296.46

 Zero-point correction=                           0.302852 (Hartree/Particle)
 Thermal correction to Energy=                    0.319198
 Thermal correction to Enthalpy=                  0.320143
 Thermal correction to Gibbs Free Energy=         0.257853
 Sum of electronic and zero-point Energies=           -950.025920
 Sum of electronic and thermal Energies=              -950.009573
 Sum of electronic and thermal Enthalpies=            -950.008629
 Sum of electronic and thermal Free Energies=         -950.070919

                     E (Thermal)             CV                S
                      KCal/Mol        Cal/Mol-Kelvin    Cal/Mol-Kelvin
 Total                  200.300             65.536            131.100
 Electronic               0.000              0.000              0.000
 Translational            0.889              2.981             42.831
 Rotational               0.889              2.981             34.354
 Vibrational            198.523             59.574             53.915
 Vibration     1          0.594              1.983              5.650
 Vibration     2          0.594              1.981              5.211
 Vibration     3          0.597              1.971              4.276
 Vibration     4          0.598              1.967              4.102
 Vibration     5          0.608              1.936              3.167
 Vibration     6          0.609              1.933              3.099
 Vibration     7          0.614              1.917              2.852
 Vibration     8          0.628              1.871              2.361
 Vibration     9          0.640              1.832              2.081
 Vibration    10          0.643              1.824              2.035
 Vibration    11          0.663              1.761              1.725
 Vibration    12          0.698              1.659              1.375
 Vibration    13          0.708              1.630              1.297
 Vibration    14          0.722              1.589              1.197
 Vibration    15          0.743              1.531              1.073
 Vibration    16          0.775              1.448              0.925
 Vibration    17          0.775              1.446              0.922
 Vibration    18          0.788              1.412              0.870
 Vibration    19          0.818              1.339              0.766
 Vibration    20          0.861              1.236              0.643
 Vibration    21          0.869              1.219              0.624
 Vibration    22          0.908              1.135              0.540
 Vibration    23          0.926              1.097              0.505
 Vibration    24          0.977              0.995              0.420

 Normal termination of Gaussian 16 at Sat Dec  9 19:21:21 2023.
