 Gaussian 16, Revision C.01,
 Gaussian 16:  ES64L-G16RevC.01  3-Jul-2019

 -----------------------------------------------------------
 # m062x 6-31g(d) scrf=(iefpcm,solvent=benzene) freq=noraman
 -----------------------------------------------------------

 ----------
 Structure2
 ----------
 Symbolic Z-matrix:
 Charge =  0 Multiplicity = 2

                         Standard orientation:
 ---------------------------------------------------------------------
 Center     Atomic      Atomic             Coordinates (Angstroms)
 Number     Number       Type             X           Y           Z
 ---------------------------------------------------------------------
      1          6           0        2.466020   -1.033774   -0.451287
      2          6           0        2.804147   -0.314951    0.890705
      3          6           0        3.696761    0.931989    0.696478
      4          6           0        4.974631    0.590980   -0.092951
      5          6           0        4.636964   -0.071173   -1.442503
      6          6           0        3.744019   -1.319546   -1.276428
      7          1           0        1.827997   -0.410163   -1.076633
      8          7           0        1.785658   -2.321856   -0.213603
      9          1           0        3.390696   -0.997388    1.510913
     10          7           0        1.626598    0.027698    1.702136
     11          1           0        3.967237    1.356166    1.664970
     12          1           0        3.156083    1.718755    0.169256
     13          1           0        5.562566    1.496204   -0.258937
     14          1           0        5.609890   -0.073492    0.496544
     15          1           0        4.132867    0.654936   -2.083965
     16          1           0        5.558101   -0.337943   -1.964961
     17          1           0        4.335405   -2.105038   -0.800920
     18          1           0        3.474743   -1.694006   -2.266166
     19          1           0        2.372146   -3.109675    0.015516
     20          1           0        1.764599   -0.033236    2.700036
     21          7           0       -0.462213   -1.485174   -0.340104
     22          6           0        0.384253   -2.505349   -0.141063
     23          6           0       -0.133688   -3.769947    0.123823
     24          6           0       -1.515938   -3.973515    0.179265
     25          1           0       -1.929580   -4.953234    0.383789
     26          7           0        0.560827    1.399841    0.066636
     27          6           0        0.656134    0.975077    1.350533
     28          6           0       -0.201155    1.417778    2.352364
     29          6           0       -1.180939    2.364172    2.052923
     30          1           0       -1.851911    2.733279    2.816775
     31          6           0       -1.283589    2.854112    0.728871
     32          6           0       -0.371497    2.341273   -0.243384
     33          6           0       -0.448423    2.804191   -1.576592
     34          6           0       -1.404976    3.753913   -1.933239
     35          6           0       -2.294838    4.253576   -0.985711
     36          6           0       -2.246101    3.816563    0.337279
     37          1           0        0.248760    2.424147   -2.309327
     38          1           0       -1.453788    4.115416   -2.952075
     39          1           0       -3.024209    4.996712   -1.280267
     40          1           0       -2.934423    4.215140    1.069905
     41          6           0       -2.391430   -2.878212   -0.039262
     42          6           0       -1.830776   -1.592353   -0.307852
     43          6           0       -2.656212   -0.472347   -0.532701
     44          6           0       -4.041811   -0.629100   -0.487414
     45          6           0       -4.607063   -1.876974   -0.224658
     46          6           0       -3.805119   -2.999421   -0.001418
     47          1           0       -2.220777    0.492358   -0.743424
     48          1           0       -4.690843    0.221838   -0.659321
     49          1           0       -5.686412   -1.970313   -0.196451
     50          1           0       -4.260941   -3.960582    0.199906
     51          1           0       -0.105141    1.044955    3.361224
     52          1           0        0.535050   -4.604118    0.284602
     53          1           0       -0.050451   -0.566051   -0.441106
 ---------------------------------------------------------------------

 SCF Done:  E(UM062X) =  -1148.12694377     A.U. after   19 cycles

 The electronic state is 2-A.
 Alpha  occ. eigenvalues --  -14.78660 -14.78311 -14.77097 -14.75699 -10.63675
 Alpha  occ. eigenvalues --  -10.61772 -10.59287 -10.59240 -10.59205 -10.57904
 Alpha  occ. eigenvalues --  -10.57903 -10.56356 -10.56332 -10.56065 -10.55760
 Alpha  occ. eigenvalues --  -10.55228 -10.55171 -10.54965 -10.54377 -10.54255
 Alpha  occ. eigenvalues --  -10.54046 -10.53743 -10.52670 -10.52356 -10.52192
 Alpha  occ. eigenvalues --  -10.52157 -10.51904 -10.51441  -1.09507  -1.07820
 Alpha  occ. eigenvalues --   -1.02515  -1.00693  -0.94700  -0.92914  -0.92079
 Alpha  occ. eigenvalues --   -0.90761  -0.88102  -0.85583  -0.84365  -0.83279
 Alpha  occ. eigenvalues --   -0.82285  -0.81333  -0.80124  -0.74041  -0.72423
 Alpha  occ. eigenvalues --   -0.71548  -0.70522  -0.69586  -0.68996  -0.68448
 Alpha  occ. eigenvalues --   -0.68080  -0.64977  -0.62297  -0.60918  -0.59722
 Alpha  occ. eigenvalues --   -0.59373  -0.58429  -0.57970  -0.56390  -0.54785
 Alpha  occ. eigenvalues --   -0.53693  -0.52720  -0.52273  -0.51749  -0.51239
 Alpha  occ. eigenvalues --   -0.50450  -0.50330  -0.49741  -0.49278  -0.49063
 Alpha  occ. eigenvalues --   -0.48332  -0.47724  -0.47429  -0.47160  -0.46525
 Alpha  occ. eigenvalues --   -0.45452  -0.44464  -0.43325  -0.42303  -0.42233
 Alpha  occ. eigenvalues --   -0.41640  -0.41305  -0.40925  -0.40629  -0.39022
 Alpha  occ. eigenvalues --   -0.38660  -0.38417  -0.37793  -0.37561  -0.36512
 Alpha  occ. eigenvalues --   -0.35555  -0.34334  -0.33075  -0.32834  -0.28391
 Alpha  occ. eigenvalues --   -0.26596  -0.26281  -0.25643  -0.12215
 Alpha virt. eigenvalues --   -0.02621   0.02530   0.05100   0.05371   0.06541
 Alpha virt. eigenvalues --    0.10997   0.12115   0.13142   0.13906   0.14382
 Alpha virt. eigenvalues --    0.15052   0.15421   0.15969   0.16279   0.17357

  Beta  occ. eigenvalues --  -14.78430 -14.78312 -14.77000 -14.75698 -10.63675
  Beta  occ. eigenvalues --  -10.61640 -10.59277 -10.59241 -10.59211 -10.57903
  Beta  occ. eigenvalues --  -10.57865 -10.56356 -10.56332 -10.56065 -10.55760
  Beta  occ. eigenvalues --  -10.55227 -10.55171 -10.54963 -10.54376 -10.54255
  Beta  occ. eigenvalues --  -10.54046 -10.53830 -10.52668 -10.52390 -10.52089
  Beta  occ. eigenvalues --  -10.52031 -10.51900 -10.51114  -1.08991  -1.07711
  Beta  occ. eigenvalues --   -1.02382  -1.00449  -0.94691  -0.92740  -0.91894
  Beta  occ. eigenvalues --   -0.90748  -0.87517  -0.85578  -0.84163  -0.83277
  Beta  occ. eigenvalues --   -0.82217  -0.81095  -0.79854  -0.73980  -0.72149
  Beta  occ. eigenvalues --   -0.71335  -0.70278  -0.69389  -0.68882  -0.68244
  Beta  occ. eigenvalues --   -0.67818  -0.64950  -0.62285  -0.60681  -0.59532
  Beta  occ. eigenvalues --   -0.59291  -0.58291  -0.57661  -0.56377  -0.54683
  Beta  occ. eigenvalues --   -0.53397  -0.52611  -0.52210  -0.51644  -0.51216
  Beta  occ. eigenvalues --   -0.50304  -0.50061  -0.49545  -0.48836  -0.48634
  Beta  occ. eigenvalues --   -0.48254  -0.47506  -0.47307  -0.47013  -0.46396
  Beta  occ. eigenvalues --   -0.45374  -0.44159  -0.43172  -0.42265  -0.41944
  Beta  occ. eigenvalues --   -0.41600  -0.41294  -0.40761  -0.39978  -0.38937
  Beta  occ. eigenvalues --   -0.38628  -0.38217  -0.37562  -0.37344  -0.36470
  Beta  occ. eigenvalues --   -0.34497  -0.33482  -0.32833  -0.31651  -0.28379
  Beta  occ. eigenvalues --   -0.26052  -0.25032  -0.24361
  Beta virt. eigenvalues --   -0.02619   0.01101   0.02566   0.05393   0.05432
  Beta virt. eigenvalues --    0.08571   0.11009   0.12131   0.13207   0.13926
  Beta virt. eigenvalues --    0.14453   0.15166   0.16095   0.16298   0.17278

 Mulliken charges and spin densities:
               1          2
     1  C   -0.011736  -0.002171
     2  C    0.042407   0.005109
     3  C   -0.301528   0.000562
     4  C   -0.308892  -0.000013
     5  C   -0.308316   0.000320
     6  C   -0.310790   0.001233
     7  H    0.193299   0.000118
     8  N   -0.716893   0.043876
     9  H    0.153994  -0.000165
    10  N   -0.681466  -0.000321
    11  H    0.153133   0.000181
    12  H    0.177938  -0.000042
    13  H    0.162973  -0.000008
    14  H    0.147196  -0.000006
    15  H    0.158907  -0.000006
    16  H    0.162704   0.000075
    17  H    0.146011  -0.000052
    18  H    0.179137   0.000010
    19  H    0.353174  -0.002824
    20  H    0.358756  -0.000023
    21  N   -0.846783   0.123264
    22  C    0.618759   0.169858
    23  C   -0.290826   0.011970
    24  C   -0.211071   0.453691
    25  H    0.142319  -0.023268
    26  N   -0.642495   0.000605
    27  C    0.508867   0.000310
    28  C   -0.226498   0.000228
    29  C   -0.156598  -0.000331
    30  H    0.195202   0.000014
    31  C    0.084985   0.000456
    32  C    0.226448  -0.000215
    33  C   -0.186230   0.000562
    34  C   -0.167391  -0.000281
    35  C   -0.180655   0.000624
    36  C   -0.206809  -0.000260
    37  H    0.175209  -0.000021
    38  H    0.179067   0.000009
    39  H    0.173837  -0.000031
    40  H    0.178566   0.000009
    41  C    0.085102  -0.104272
    42  C    0.297158   0.055986
    43  C   -0.197753   0.009443
    44  C   -0.202121   0.155777
    45  C   -0.172773  -0.055061
    46  C   -0.255367   0.182264
    47  H    0.153369  -0.001431
    48  H    0.148423  -0.008474
    49  H    0.147349   0.001274
    50  H    0.149869  -0.009045
    51  H    0.185924  -0.000014
    52  H    0.145073  -0.003264
    53  H    0.397835  -0.006229
 Sum of Mulliken charges =  -0.00000   1.00000

 Dipole moment (field-independent basis, Debye):
    X=              5.5257    Y=              3.3934    Z=              2.5746  Tot=              6.9769
 Quadrupole moment (field-independent basis, Debye-Ang):
   XX=           -154.2149   YY=           -161.5264   ZZ=           -153.1302
   XY=            -19.2575   XZ=              0.0913   YZ=             -2.2213

  Exact polarizability:     417.496     -66.306     329.490       6.894     -46.643     237.745
 Approx polarizability:     417.313     -85.221     365.523       7.883     -62.711     297.102

 ******    3 imaginary frequencies (negative Signs) ******

                      1                      2                      3
                      A                      A                      A
 Frequencies --   -272.3806               -50.1340                -6.8940
 Red. masses --      1.3226                 4.2894                 4.6147
 Frc consts  --      0.0578                 0.0064                 0.0001
 IR Inten    --    137.7102                 5.5776                 1.3864

                      4                      5                      6
                      A                      A                      A
 Frequencies --     30.8542                46.5439                67.4369
 Red. masses --      5.0041                 5.2635                 3.8398
 Frc consts  --      0.0028                 0.0067                 0.0103
 IR Inten    --      0.3557                 0.1101                 0.4644

                      7                      8                      9
                      A                      A                      A
 Frequencies --     74.4649               103.4195               113.0051
 Red. masses --      3.8647                 3.7283                 4.4984
 Frc consts  --      0.0126                 0.0235                 0.0338
 IR Inten    --      0.6458                 0.9155                 0.9597

                     10                     11                     12
                      A                      A                      A
 Frequencies --    123.6252               143.0137               165.8831
 Red. masses --      3.8973                 3.7998                 2.8051
 Frc consts  --      0.0351                 0.0458                 0.0455
 IR Inten    --      2.3802                 2.9342                 0.9452

                     13                     14                     15
                      A                      A                      A
 Frequencies --    198.1560               211.2857               241.0694
 Red. masses --      4.7607                 3.8401                 4.7273
 Frc consts  --      0.1101                 0.1010                 0.1619
 IR Inten    --     14.7564                 2.2739                 1.2145

                     16                     17                     18
                      A                      A                      A
 Frequencies --    266.1343               291.3188               295.9950
 Red. masses --      4.2797                 1.7584                 4.1825
 Frc consts  --      0.1786                 0.0879                 0.2159
 IR Inten    --      1.4818                 1.1282                 3.0711

                     19                     20                     21
                      A                      A                      A
 Frequencies --    316.7945               322.0375               337.6496
 Red. masses --      2.9919                 3.8987                 2.5824
 Frc consts  --      0.1769                 0.2382                 0.1735
 IR Inten    --     20.1045                 0.3668                18.3347

                     22                     23                     24
                      A                      A                      A
 Frequencies --    365.3792               389.0752               418.3003
 Red. masses --      1.7550                 3.5751                 3.6907
 Frc consts  --      0.1380                 0.3189                 0.3805
 IR Inten    --     48.0207                79.5746                 3.5493

                     25                     26                     27
                      A                      A                      A
 Frequencies --    425.4198               440.3769               448.8105
 Red. masses --      3.3043                 3.2524                 3.8224
 Frc consts  --      0.3523                 0.3716                 0.4536
 IR Inten    --      6.9985                 0.5445                 6.4417

                     28                     29                     30
                      A                      A                      A
 Frequencies --    458.3293               459.7349               489.2133
 Red. masses --      2.5770                 3.7403                 2.8360
 Frc consts  --      0.3189                 0.4658                 0.3999
 IR Inten    --      7.1070                 3.6662                 6.5214

                     31                     32                     33
                      A                      A                      A
 Frequencies --    491.6600               518.2846               527.9679
 Red. masses --      2.8902                 4.8862                 6.5375
 Frc consts  --      0.4116                 0.7733                 1.0737
 IR Inten    --     13.3498                 3.4515                 1.6634

                     34                     35                     36
                      A                      A                      A
 Frequencies --    533.4618               556.4367               561.6240
 Red. masses --      6.1359                 3.2778                 2.9538
 Frc consts  --      1.0288                 0.5980                 0.5489
 IR Inten    --      0.4016                 2.9701                18.3105

                     37                     38                     39
                      A                      A                      A
 Frequencies --    566.8848               594.9140               619.8947
 Red. masses --      2.9864                 1.6865                 3.4311
 Frc consts  --      0.5654                 0.3517                 0.7768
 IR Inten    --     12.4459                40.9906                 4.3614

                     40                     41                     42
                      A                      A                      A
 Frequencies --    621.4592               626.4254               675.1358
 Red. masses --      5.2944                 2.7162                 1.4471
 Frc consts  --      1.2047                 0.6280                 0.3886
 IR Inten    --      3.9794                31.1626                11.6285

                     43                     44                     45
                      A                      A                      A
 Frequencies --    688.6246               698.4713               723.9427
 Red. masses --      3.6573                 2.3900                 4.4782
 Frc consts  --      1.0218                 0.6870                 1.3828
 IR Inten    --      2.3104                 2.9730                 1.1170

                     46                     47                     48
                      A                      A                      A
 Frequencies --    733.8797               739.3420               748.2474
 Red. masses --      1.3825                 4.6740                 2.7240
 Frc consts  --      0.4387                 1.5053                 0.8986
 IR Inten    --     94.2452                24.7551                 8.1661

                     49                     50                     51
                      A                      A                      A
 Frequencies --    762.7172               767.7207               783.5365
 Red. masses --      1.5247                 1.8456                 4.6405
 Frc consts  --      0.5226                 0.6409                 1.6785
 IR Inten    --     32.4969                 2.9315                 3.8310

                     52                     53                     54
                      A                      A                      A
 Frequencies --    787.0440               798.3427               798.6718
 Red. masses --      3.3511                 1.3296                 5.0373
 Frc consts  --      1.2230                 0.4993                 1.8931
 IR Inten    --      4.0632                22.0761                 1.6682

                     55                     56                     57
                      A                      A                      A
 Frequencies --    824.9900               829.4941               846.6666
 Red. masses --      1.7151                 1.7070                 2.0747
 Frc consts  --      0.6878                 0.6920                 0.8763
 IR Inten    --     84.1412                 4.6452                 4.1114

                     58                     59                     60
                      A                      A                      A
 Frequencies --    862.0988               874.8220               877.3715
 Red. masses --      1.7182                 1.6692                 1.3822
 Frc consts  --      0.7524                 0.7527                 0.6269
 IR Inten    --      9.0000                 0.1859                 3.3618

                     61                     62                     63
                      A                      A                      A
 Frequencies --    888.3747               893.9188               938.2781
 Red. masses --      2.3696                 3.9892                 3.3766
 Frc consts  --      1.1018                 1.8782                 1.7514
 IR Inten    --      4.2390                57.1716                 0.9901

                     64                     65                     66
                      A                      A                      A
 Frequencies --    940.4825               956.2517               956.9887
 Red. masses --      2.3804                 1.3473                 1.2601
 Frc consts  --      1.2405                 0.7259                 0.6799
 IR Inten    --      3.1770                 0.8755                 0.0965

                     67                     68                     69
                      A                      A                      A
 Frequencies --    960.8923               978.7862               989.1778
 Red. masses --      2.3422                 1.3893                 3.4608
 Frc consts  --      1.2742                 0.7842                 1.9951
 IR Inten    --      2.8231                 2.5470                 5.9922

                     70                     71                     72
                      A                      A                      A
 Frequencies --   1002.8735              1004.0402              1054.2152
 Red. masses --      1.3157                 3.6369                 1.8495
 Frc consts  --      0.7796                 2.1602                 1.2111
 IR Inten    --      0.0756                32.4991                24.4806

                     73                     74                     75
                      A                      A                      A
 Frequencies --   1057.9058              1062.8046              1064.9214
 Red. masses --      1.3828                 1.9696                 1.8524
 Frc consts  --      0.9118                 1.3108                 1.2377
 IR Inten    --      3.4006                 6.0369                 7.1937

                     76                     77                     78
                      A                      A                      A
 Frequencies --   1087.5331              1103.3572              1112.9968
 Red. masses --      2.9283                 2.5120                 2.5037
 Frc consts  --      2.0406                 1.8018                 1.8273
 IR Inten    --     68.6747                10.0469                24.1563

                     79                     80                     81
                      A                      A                      A
 Frequencies --   1132.3854              1136.0692              1137.6579
 Red. masses --      1.4292                 1.5582                 1.5373
 Frc consts  --      1.0798                 1.1849                 1.1723
 IR Inten    --     22.0453                24.7639                 5.7012

                     82                     83                     84
                      A                      A                      A
 Frequencies --   1141.9495              1150.6231              1157.3870
 Red. masses --      1.7562                 2.1244                 1.5231
 Frc consts  --      1.3494                 1.6571                 1.2021
 IR Inten    --      3.5099                10.2946                21.0783

                     85                     86                     87
                      A                      A                      A
 Frequencies --   1168.6179              1172.8366              1220.2557
 Red. masses --      1.3296                 1.1161                 1.6037
 Frc consts  --      1.0699                 0.9046                 1.4069
 IR Inten    --      2.9283                 0.9343               187.9795

                     88                     89                     90
                      A                      A                      A
 Frequencies --   1223.2277              1241.2145              1246.1317
 Red. masses --      1.4646                 2.1898                 1.9853
 Frc consts  --      1.2912                 1.9877                 1.8164
 IR Inten    --      9.6906                23.7525                26.7437

                     91                     92                     93
                      A                      A                      A
 Frequencies --   1259.9776              1266.1833              1272.0119
 Red. masses --      1.4618                 1.4354                 1.6521
 Frc consts  --      1.3673                 1.3559                 1.5750
 IR Inten    --      7.7086                10.8388                34.2110

                     94                     95                     96
                      A                      A                      A
 Frequencies --   1284.6358              1291.2219              1304.4915
 Red. masses --      1.8959                 1.6731                 1.4646
 Frc consts  --      1.8434                 1.6435                 1.4685
 IR Inten    --     31.8064                24.7872                21.0111

                     97                     98                     99
                      A                      A                      A
 Frequencies --   1319.3280              1324.0658              1332.3930
 Red. masses --      2.0794                 1.6679                 4.6864
 Frc consts  --      2.1325                 1.7228                 4.9018
 IR Inten    --      7.2322                74.1644                84.9930

                    100                    101                    102
                      A                      A                      A
 Frequencies --   1343.3591              1354.5077              1359.4323
 Red. masses --      2.0949                 1.5211                 1.4388
 Frc consts  --      2.2274                 1.6443                 1.5667
 IR Inten    --     39.7023                29.1130                38.1666

                    103                    104                    105
                      A                      A                      A
 Frequencies --   1368.4195              1375.6199              1384.6961
 Red. masses --      1.4966                 1.8080                 1.5003
 Frc consts  --      1.6512                 2.0158                 1.6949
 IR Inten    --     18.9315                18.3236                16.8230

                    106                    107                    108
                      A                      A                      A
 Frequencies --   1392.2169              1408.4276              1418.5342
 Red. masses --      1.5098                 2.2221                 3.1855
 Frc consts  --      1.7242                 2.5970                 3.7766
 IR Inten    --      1.9641                56.7970                14.7254

                    109                    110                    111
                      A                      A                      A
 Frequencies --   1419.7839              1461.2447              1475.4163
 Red. masses --      1.7517                 2.2507                 2.0424
 Frc consts  --      2.0805                 2.8314                 2.6195
 IR Inten    --     49.6523                 8.4248                 4.5221

                    112                    113                    114
                      A                      A                      A
 Frequencies --   1481.3302              1493.8804              1495.8099
 Red. masses --      2.6861                 2.6721                 2.6363
 Frc consts  --      3.4728                 3.5135                 3.4753
 IR Inten    --    219.9730               107.3968               101.1369

                    115                    116                    117
                      A                      A                      A
 Frequencies --   1503.7329              1507.2023              1510.8649
 Red. masses --      1.1198                 1.0933                 1.0871
 Frc consts  --      1.4918                 1.4633                 1.4621
 IR Inten    --      1.0243                 4.1217                 1.6576

                    118                    119                    120
                      A                      A                      A
 Frequencies --   1522.8992              1527.5044              1530.0729
 Red. masses --      1.2157                 1.5142                 2.0931
 Frc consts  --      1.6612                 2.0817                 2.8871
 IR Inten    --     23.3805                20.3004                43.4290

                    121                    122                    123
                      A                      A                      A
 Frequencies --   1584.3613              1598.2622              1615.2192
 Red. masses --      5.0316                 4.8430                 4.8014
 Frc consts  --      7.4416                 7.2889                 7.3804
 IR Inten    --    110.2258               191.1638                17.2853

                    124                    125                    126
                      A                      A                      A
 Frequencies --   1625.3667              1663.2126              1669.9366
 Red. masses --      4.3564                 2.6952                 5.7975
 Frc consts  --      6.7808                 4.3927                 9.5256
 IR Inten    --     85.8526               368.1865               409.9119

                    127                    128                    129
                      A                      A                      A
 Frequencies --   1678.3534              1682.9242              3118.1902
 Red. masses --      6.2919                 7.1430                 1.0615
 Frc consts  --     10.4423                11.9196                 6.0810
 IR Inten    --     76.2945                77.8522                27.4902

                    130                    131                    132
                      A                      A                      A
 Frequencies --   3119.1142              3120.4304              3123.1553
 Red. masses --      1.0616                 1.0644                 1.0850
 Frc consts  --      6.0854                 6.1063                 6.2355
 IR Inten    --     25.0592                41.2526                42.6012

                    133                    134                    135
                      A                      A                      A
 Frequencies --   3134.7376              3153.9845              3159.7907
 Red. masses --      1.0645                 1.1000                 1.1026
 Frc consts  --      6.1633                 6.4473                 6.4861
 IR Inten    --     32.9268                41.7289                26.5553

                    136                    137                    138
                      A                      A                      A
 Frequencies --   3167.4015              3182.3426              3186.2397
 Red. masses --      1.1027                 1.0995                 1.0904
 Frc consts  --      6.5177                 6.5606                 6.5225
 IR Inten    --     33.3327                18.6193                39.0585

                    139                    140                    141
                      A                      A                      A
 Frequencies --   3233.2825              3247.4166              3248.1396
 Red. masses --      1.0854                 1.0885                 1.0903
 Frc consts  --      6.6855                 6.7634                 6.7775
 IR Inten    --      8.8269                43.1629                18.0774

                    142                    143                    144
                      A                      A                      A
 Frequencies --   3256.9794              3262.4795              3271.3800
 Red. masses --      1.0866                 1.0945                 1.0919
 Frc consts  --      6.7912                 6.8640                 6.8847
 IR Inten    --      2.1466                34.4304                12.1973

                    145                    146                    147
                      A                      A                      A
 Frequencies --   3271.9285              3277.5382              3280.6411
 Red. masses --      1.0931                 1.0902                 1.0947
 Frc consts  --      6.8945                 6.8999                 6.9417
 IR Inten    --     18.8236                 4.0780                20.4048

                    148                    149                    150
                      A                      A                      A
 Frequencies --   3292.5916              3293.0438              3299.7227
 Red. masses --      1.0942                 1.0945                 1.0914
 Frc consts  --      6.9894                 6.9929                 7.0017
 IR Inten    --     10.3677                 3.4959                 2.3672

                    151                    152                    153
                      A                      A                      A
 Frequencies --   3598.3053              3663.6572              3678.0582
 Red. masses --      1.0773                 1.0770                 1.0773
 Frc consts  --      8.2186                 8.5173                 8.5865
 IR Inten    --    402.1034                59.0904                73.3863

 - Thermochemistry -
 -------------------
 Temperature   298.150 Kelvin.  Pressure   1.00000 Atm.
 Atom     1 has atomic number  6 and mass  12.00000

 Molecular mass:   369.20792 amu.
 Principal axes and moments of inertia in atomic units:
                           1         2         3
     Eigenvalues --  8599.45234********************
           X            0.99969  -0.02444  -0.00537
           Y            0.02442   0.99969  -0.00408
           Z            0.00547   0.00395   0.99998
 This molecule is an asymmetric top.
 Rotational symmetry number  1.
 Warning -- assumption of classical behavior for rotation
           may cause significant error
 Rotational temperatures (Kelvin)      0.01007     0.00838     0.00542
 Rotational constants (GHZ):           0.20987     0.17454     0.11290
    3 imaginary frequencies ignored.
 Zero-point vibrational energy    1179596.1 (Joules/Mol)
                                  281.93023 (Kcal/Mol)
 Warning -- explicit consideration of  36 degrees of freedom as
           vibrations may cause significant error
 Vibrational temperatures:     44.39    66.97    97.03   107.14   148.80
          (Kelvin)            162.59   177.87   205.76   238.67   285.10
                              303.99   346.85   382.91   419.14   425.87
                              455.80   463.34   485.80   525.70   559.79
                              601.84   612.08   633.60   645.74   659.43
                              661.46   703.87   707.39   745.70   759.63
                              767.53   800.59   808.05   815.62   855.95
                              891.89   894.14   901.29   971.37   990.78
                             1004.94  1041.59  1055.89  1063.75  1076.56
                             1097.38  1104.58  1127.33  1132.38  1148.64
                             1149.11  1186.98  1193.46  1218.16  1240.37
                             1258.67  1262.34  1278.17  1286.15  1349.97
                             1353.14  1375.83  1376.89  1382.51  1408.25
                             1423.21  1442.91  1444.59  1516.78  1522.09
                             1529.14  1532.18  1564.72  1587.48  1601.35
                             1629.25  1634.55  1636.84  1643.01  1655.49
                             1665.22  1681.38  1687.45  1755.68  1759.95
                             1785.83  1792.91  1812.83  1821.76  1830.14
                             1848.30  1857.78  1876.87  1898.22  1905.04
                             1917.02  1932.79  1948.83  1955.92  1968.85
                             1979.21  1992.27  2003.09  2026.41  2040.95
                             2042.75  2102.41  2122.79  2131.30  2149.36
                             2152.14  2163.54  2168.53  2173.80  2191.11
                             2197.74  2201.43  2279.54  2299.54  2323.94
                             2338.54  2392.99  2402.67  2414.78  2421.35
                             4486.38  4487.71  4489.60  4493.52  4510.19
                             4537.88  4546.23  4557.18  4578.68  4584.29
                             4651.97  4672.31  4673.35  4686.07  4693.98
                             4706.79  4707.58  4715.65  4720.11  4737.30
                             4737.96  4747.57  5177.16  5271.19  5291.91

 Zero-point correction=                           0.449284 (Hartree/Particle)
 Thermal correction to Energy=                    0.470235
 Thermal correction to Enthalpy=                  0.471179
 Thermal correction to Gibbs Free Energy=         0.400119
 Sum of electronic and zero-point Energies=          -1147.677659
 Sum of electronic and thermal Energies=             -1147.656709
 Sum of electronic and thermal Enthalpies=           -1147.655764
 Sum of electronic and thermal Free Energies=        -1147.726825

                     E (Thermal)             CV                S
                      KCal/Mol        Cal/Mol-Kelvin    Cal/Mol-Kelvin
 Total                  295.077             89.926            149.558
 Electronic               0.000              0.000              1.377
 Translational            0.889              2.981             43.612
 Rotational               0.889              2.981             35.607
 Vibrational            293.300             83.965             68.963
 Vibration     1          0.594              1.984              5.774
 Vibration     2          0.595              1.979              4.959
 Vibration     3          0.598              1.970              4.227
 Vibration     4          0.599              1.966              4.032
 Vibration     5          0.605              1.946              3.389
 Vibration     6          0.607              1.939              3.217
 Vibration     7          0.610              1.929              3.043
 Vibration     8          0.616              1.910              2.763
 Vibration     9          0.624              1.884              2.482
 Vibration    10          0.637              1.842              2.150
 Vibration    11          0.643              1.824              2.033
 Vibration    12          0.658              1.777              1.795
 Vibration    13          0.672              1.735              1.621
 Vibration    14          0.687              1.690              1.466
 Vibration    15          0.690              1.681              1.439
 Vibration    16          0.704              1.642              1.327
 Vibration    17          0.707              1.631              1.300
 Vibration    18          0.718              1.600              1.223
 Vibration    19          0.739              1.544              1.099
 Vibration    20          0.757              1.494              1.004
 Vibration    21          0.781              1.430              0.898
 Vibration    22          0.787              1.415              0.874
 Vibration    23          0.800              1.382              0.825
 Vibration    24          0.808              1.364              0.799
 Vibration    25          0.816              1.342              0.771
 Vibration    26          0.818              1.339              0.767
 Vibration    27          0.845              1.274              0.686
 Vibration    28          0.847              1.269              0.679
 Vibration    29          0.873              1.209              0.614
 Vibration    30          0.883              1.188              0.592
 Vibration    31          0.888              1.176              0.580
 Vibration    32          0.912              1.126              0.531
 Vibration    33          0.917              1.114              0.521
 Vibration    34          0.923              1.103              0.510
 Vibration    35          0.953              1.043              0.458
 Vibration    36          0.980              0.990              0.417

 Normal termination of Gaussian 16 at Sat Dec  9 19:55:07 2023.
