 Gaussian 16, Revision C.01,
 Gaussian 16:  ES64L-G16RevC.01  3-Jul-2019

 -----------------------------------------------------------
 # m062x 6-31g(d) scrf=(iefpcm,solvent=benzene) freq=noraman
 -----------------------------------------------------------

 ----------
 Structure3
 ----------
 Symbolic Z-matrix:
 Charge =  0 Multiplicity = 1

                         Standard orientation:
 ---------------------------------------------------------------------
 Center     Atomic      Atomic             Coordinates (Angstroms)
 Number     Number       Type             X           Y           Z
 ---------------------------------------------------------------------
      1          6           0        0.902843    3.230424   -0.675516
      2          6           0        0.611140    4.590596   -0.622993
      3          6           0       -0.131735    5.097404    0.439260
      4          6           0       -0.580022    4.255484    1.452640
      5          6           0       -0.284268    2.896306    1.402274
      6          6           0        0.453138    2.365402    0.335064
      7          1           0        1.486269    2.865977   -1.508800
      8          1           0        0.963535    5.250214   -1.403271
      9          1           0       -0.358880    6.153298    0.479079
     10          1           0       -1.155723    4.655315    2.275461
     11          1           0       -0.643139    2.262913    2.200911
     12          6           0        0.737640    0.849071    0.312258
     13          7           0        1.533134    0.427178   -0.873911
     14          1           0        1.354217    0.665844    1.194867
     15          6           0       -0.558669   -0.012922    0.421184
     16          1           0       -1.001227    0.168120    1.402191
     17          7           0       -1.549449    0.404829   -0.608060
     18          6           0        0.301015   -4.250004    0.369170
     19          6           0       -0.205039   -3.649086   -0.780300
     20          6           0       -0.494070   -2.287596   -0.777340
     21          6           0       -0.281190   -1.522636    0.379598
     22          6           0        0.228865   -2.140024    1.526936
     23          6           0        0.519267   -3.501445    1.522693
     24          1           0        0.525712   -5.307299    0.366287
     25          1           0       -0.374505   -4.238362   -1.670655
     26          1           0       -0.887662   -1.839602   -1.678992
     27          1           0        0.405532   -1.570485    2.428751
     28          1           0        0.913525   -3.975736    2.410344
     29          1           0        1.195644   -0.439779   -1.296273
     30          1           0       -1.262661    1.258031   -1.093695
     31         16           0        3.284480    0.394197   -0.756579
     32          8           0        3.685845    1.597841   -0.020734
     33          6           0        3.683065   -1.162731    0.293911
     34          8           0        3.759295    0.174690   -2.126376
     35         16           0       -3.228811    0.585507   -0.135620
     36          8           0       -3.812669    1.475343   -1.143927
     37          6           0       -3.992929   -1.167393   -0.307241
     38          8           0       -3.230992    0.990417    1.275693
     39          9           0        5.007991   -1.300453    0.369540
     40          9           0        3.167702   -1.004869    1.515324
     41          9           0        3.142053   -2.226936   -0.303003
     42          9           0       -3.765254   -1.615134   -1.544606
     43          9           0       -3.424995   -1.975374    0.590431
     44          9           0       -5.305638   -1.083811   -0.081471
 ---------------------------------------------------------------------

 SCF Done:  E(RM062X) =  -2423.11251579     A.U. after   13 cycles

 The electronic state is 1-A.
 Alpha  occ. eigenvalues --  -90.19177 -90.19051 -25.33847 -25.33677 -25.33613
 Alpha  occ. eigenvalues --  -25.33539 -25.33517 -25.33294 -19.67628 -19.67502
 Alpha  occ. eigenvalues --  -19.67465 -19.67424 -14.82387 -14.81882 -10.86576
 Alpha  occ. eigenvalues --  -10.86015 -10.63347 -10.63042 -10.58236 -10.57516
 Alpha  occ. eigenvalues --  -10.56964 -10.56781 -10.56683 -10.56604 -10.56407
 Alpha  occ. eigenvalues --  -10.55993 -10.55718 -10.55605 -10.55458 -10.55353
 Alpha  occ. eigenvalues --   -8.50313  -8.50142  -6.42471  -6.42420  -6.42379
 Alpha  occ. eigenvalues --   -6.42300  -6.42256  -6.42215  -1.50091  -1.50058
 Alpha  occ. eigenvalues --   -1.41321  -1.41219  -1.41151  -1.41020  -1.26003
 Alpha  occ. eigenvalues --   -1.25881  -1.15076  -1.15065  -1.06625  -1.03153
 Alpha  occ. eigenvalues --   -0.97549  -0.96532  -0.90081  -0.87494  -0.86978
 Alpha  occ. eigenvalues --   -0.86361  -0.85825  -0.84694  -0.81794  -0.78574
 Alpha  occ. eigenvalues --   -0.77667  -0.74997  -0.72691  -0.72661  -0.72609
 Alpha  occ. eigenvalues --   -0.72568  -0.70907  -0.69734  -0.69387  -0.69020
 Alpha  occ. eigenvalues --   -0.67597  -0.66594  -0.63002  -0.61370  -0.61091
 Alpha  occ. eigenvalues --   -0.60506  -0.60100  -0.60001  -0.59707  -0.59636
 Alpha  occ. eigenvalues --   -0.59551  -0.57224  -0.57105  -0.56956  -0.56551
 Alpha  occ. eigenvalues --   -0.56409  -0.56252  -0.55901  -0.55052  -0.54539
 Alpha  occ. eigenvalues --   -0.54494  -0.54461  -0.54138  -0.53459  -0.52053
 Alpha  occ. eigenvalues --   -0.51281  -0.50619  -0.50250  -0.49457  -0.49076
 Alpha  occ. eigenvalues --   -0.48242  -0.44840  -0.44252  -0.43875  -0.43481
 Alpha  occ. eigenvalues --   -0.42713  -0.42525  -0.42001  -0.41732  -0.41258
 Alpha  occ. eigenvalues --   -0.40789  -0.40576  -0.40316  -0.40045  -0.39412
 Alpha  occ. eigenvalues --   -0.36543  -0.35306  -0.32160  -0.31663  -0.30944
 Alpha  occ. eigenvalues --   -0.30306
 Alpha virt. eigenvalues --    0.00214   0.00899   0.02074   0.02858   0.03000
 Alpha virt. eigenvalues --    0.03919   0.05600   0.06050   0.07744   0.08713
 Alpha virt. eigenvalues --    0.10410   0.11777   0.13129   0.13360   0.14412

 Mulliken charges:
               1
     1  C   -0.185730
     2  C   -0.164395
     3  C   -0.166572
     4  C   -0.165206
     5  C   -0.194025
     6  C    0.077340
     7  H    0.193640
     8  H    0.181723
     9  H    0.176049
    10  H    0.182523
    11  H    0.176581
    12  C   -0.068182
    13  N   -0.750467
    14  H    0.210502
    15  C   -0.093475
    16  H    0.221655
    17  N   -0.757218
    18  C   -0.166636
    19  C   -0.159343
    20  C   -0.221632
    21  C    0.085806
    22  C   -0.204346
    23  C   -0.164496
    24  H    0.180911
    25  H    0.186202
    26  H    0.192093
    27  H    0.177540
    28  H    0.185210
    29  H    0.392494
    30  H    0.403047
    31  S    1.204232
    32  O   -0.530501
    33  C    0.641294
    34  O   -0.521201
    35  S    1.205479
    36  O   -0.525852
    37  C    0.655293
    38  O   -0.529976
    39  F   -0.226286
    40  F   -0.229485
    41  F   -0.228482
    42  F   -0.226257
    43  F   -0.225195
    44  F   -0.224659
 Sum of Mulliken charges =  -0.00000

 Dipole moment (field-independent basis, Debye):
    X=             -0.5920    Y=             -4.4708    Z=              2.1454  Tot=              4.9941
 Quadrupole moment (field-independent basis, Debye-Ang):
   XX=           -207.9325   YY=           -164.2213   ZZ=           -181.2220
   XY=             -1.4611   XZ=              7.3292   YZ=              0.3342

  Exact polarizability:     211.004     -20.232     309.238      -8.445      -1.663     214.639
 Approx polarizability:     223.178     -21.066     323.075      -8.707       0.640     296.640

                      1                      2                      3
                      A                      A                      A
 Frequencies --     24.4322                36.0478                44.8972
 Red. masses --      5.2090                 4.9801                 5.6552
 Frc consts  --      0.0018                 0.0038                 0.0067
 IR Inten    --      0.6059                 0.0462                 0.0441

                      4                      5                      6
                      A                      A                      A
 Frequencies --     49.3825                53.1637                70.2176
 Red. masses --      6.1327                 5.3365                 9.1374
 Frc consts  --      0.0088                 0.0089                 0.0265
 IR Inten    --      0.3131                 0.1209                 0.6324

                      7                      8                      9
                      A                      A                      A
 Frequencies --     76.0225                83.2927                92.5332
 Red. masses --      6.2391                14.8247                11.8013
 Frc consts  --      0.0212                 0.0606                 0.0595
 IR Inten    --      0.6263                 0.1973                 1.4500

                     10                     11                     12
                      A                      A                      A
 Frequencies --    100.5139               105.2571               110.6028
 Red. masses --      8.6135                16.6427                17.8752
 Frc consts  --      0.0513                 0.1086                 0.1288
 IR Inten    --      1.9658                 0.2962                 0.0817

                     13                     14                     15
                      A                      A                      A
 Frequencies --    123.0174               144.6344               171.2059
 Red. masses --      8.0403                 6.6409                10.0975
 Frc consts  --      0.0717                 0.0819                 0.1744
 IR Inten    --      0.4255                 2.6642                 1.8563

                     16                     17                     18
                      A                      A                      A
 Frequencies --    180.8597               199.6946               205.9051
 Red. masses --      6.4921                 7.6834                16.4448
 Frc consts  --      0.1251                 0.1805                 0.4108
 IR Inten    --      4.3007                 4.3913                 5.7550

                     19                     20                     21
                      A                      A                      A
 Frequencies --    208.0119               238.9477               247.4761
 Red. masses --      8.7121                 5.4678                 9.7638
 Frc consts  --      0.2221                 0.1839                 0.3523
 IR Inten    --      1.2916                 2.1479                 8.1726

                     22                     23                     24
                      A                      A                      A
 Frequencies --    251.8410               266.7838               279.5784
 Red. masses --     10.8171                 5.6192                 7.0974
 Frc consts  --      0.4042                 0.2356                 0.3269
 IR Inten    --     10.8206                 3.9413                 0.7917

                     25                     26                     27
                      A                      A                      A
 Frequencies --    280.7207               283.9600               317.0105
 Red. masses --      3.9442                 8.7792                 3.9367
 Frc consts  --      0.1831                 0.4171                 0.2331
 IR Inten    --     10.3948                 0.2956                16.8917

                     28                     29                     30
                      A                      A                      A
 Frequencies --    330.0722               349.1506               362.2595
 Red. masses --      6.2429                10.1395                 6.6028
 Frc consts  --      0.4007                 0.7283                 0.5105
 IR Inten    --      8.6178                 5.2047                 6.4186

                     31                     32                     33
                      A                      A                      A
 Frequencies --    396.6768               407.6578               410.1138
 Red. masses --      4.8463                 2.9450                 2.8792
 Frc consts  --      0.4493                 0.2884                 0.2853
 IR Inten    --     41.1117                 2.5251                 2.3241

                     34                     35                     36
                      A                      A                      A
 Frequencies --    424.6330               463.8915               491.6134
 Red. masses --      3.7893                 3.0153                 3.8363
 Frc consts  --      0.4026                 0.3823                 0.5463
 IR Inten    --     35.4897                26.2222                45.2184

                     37                     38                     39
                      A                      A                      A
 Frequencies --    494.3626               511.4032               516.9028
 Red. masses --      6.6157                 6.8692                 7.2562
 Frc consts  --      0.9526                 1.0585                 1.1423
 IR Inten    --     57.3571                54.9695                11.8413

                     40                     41                     42
                      A                      A                      A
 Frequencies --    530.2658               546.2786               551.5569
 Red. masses --      8.5954                 9.5348                11.9583
 Frc consts  --      1.4240                 1.6764                 2.1434
 IR Inten    --      9.5597                11.2065                 6.9886

                     43                     44                     45
                      A                      A                      A
 Frequencies --    556.8583               570.1998               580.4830
 Red. masses --      6.5282                10.0354                11.3223
 Frc consts  --      1.1927                 1.9224                 2.2478
 IR Inten    --      9.5487                11.8420                99.1189

                     46                     47                     48
                      A                      A                      A
 Frequencies --    601.6805               621.5912               626.3361
 Red. masses --      7.8812                 8.7586                 6.3584
 Frc consts  --      1.6810                 1.9939                 1.4697
 IR Inten    --     48.5478               216.6141                 2.5400

                     49                     50                     51
                      A                      A                      A
 Frequencies --    626.4995               653.3810               670.5915
 Red. masses --      6.5125                 5.3248                 4.3619
 Frc consts  --      1.5060                 1.3393                 1.1557
 IR Inten    --     39.1486                 5.5306                96.0861

                     52                     53                     54
                      A                      A                      A
 Frequencies --    699.0897               704.4747               742.5710
 Red. masses --      1.5678                 1.5827                 4.4806
 Frc consts  --      0.4514                 0.4628                 1.4557
 IR Inten    --     51.5868                52.8514                65.7162

                     55                     56                     57
                      A                      A                      A
 Frequencies --    750.5372               759.2361               765.0690
 Red. masses --      2.7856                12.8047                 2.3244
 Frc consts  --      0.9245                 4.3488                 0.8016
 IR Inten    --      5.1891                 1.0039                89.5599

                     58                     59                     60
                      A                      A                      A
 Frequencies --    789.3444               821.5567               848.6349
 Red. masses --      4.2442                 4.4105                 1.2868
 Frc consts  --      1.5580                 1.7539                 0.5460
 IR Inten    --     54.8521                55.5508                 0.9056

                     61                     62                     63
                      A                      A                      A
 Frequencies --    853.6857               862.2781               872.7844
 Red. masses --      1.2948                 3.3423                 3.2916
 Frc consts  --      0.5560                 1.4642                 1.4773
 IR Inten    --      3.0195               144.8927                23.7421

                     64                     65                     66
                      A                      A                      A
 Frequencies --    931.0551               934.7799               960.4556
 Red. masses --      1.4337                 1.5460                 2.6934
 Frc consts  --      0.7322                 0.7959                 1.4639
 IR Inten    --      1.4213                 0.8253                 2.7031

                     67                     68                     69
                      A                      A                      A
 Frequencies --    981.2029               982.1632              1010.5622
 Red. masses --      1.3811                 1.3828                 1.3016
 Frc consts  --      0.7834                 0.7859                 0.7832
 IR Inten    --      0.5445                 0.0200                 0.3697

                     70                     71                     72
                      A                      A                      A
 Frequencies --   1011.4327              1013.5074              1014.9857
 Red. masses --      1.3198                 5.0639                 5.1376
 Frc consts  --      0.7955                 3.0647                 3.1184
 IR Inten    --      0.2001                 8.8330                 1.2711

                     73                     74                     75
                      A                      A                      A
 Frequencies --   1061.9208              1064.4046              1071.7059
 Red. masses --      2.3540                 2.3470                 9.8989
 Frc consts  --      1.5640                 1.5667                 6.6987
 IR Inten    --     16.0458                 6.4322               258.1238

                     76                     77                     78
                      A                      A                      A
 Frequencies --   1077.7520              1085.8564              1091.6165
 Red. masses --      6.7235                 5.7267                 3.6881
 Frc consts  --      4.6014                 3.9783                 2.5893
 IR Inten    --    250.1903               191.6207                44.7865

                     79                     80                     81
                      A                      A                      A
 Frequencies --   1121.3568              1126.8279              1175.6496
 Red. masses --      1.5140                 1.6441                10.4695
 Frc consts  --      1.1217                 1.2300                 8.5257
 IR Inten    --      9.4732                 6.1387               156.9637

                     82                     83                     84
                      A                      A                      A
 Frequencies --   1180.9388              1182.5060              1183.0039
 Red. masses --      1.1967                 1.5616                 2.2897
 Frc consts  --      0.9833                 1.2865                 1.8880
 IR Inten    --     11.5037                36.5687                59.6275

                     85                     86                     87
                      A                      A                      A
 Frequencies --   1197.3822              1202.5860              1215.6886
 Red. masses --      1.1764                 1.1953                 2.4665
 Frc consts  --      0.9937                 1.0185                 2.1477
 IR Inten    --      9.5288                 2.0439                 5.7059

                     88                     89                     90
                      A                      A                      A
 Frequencies --   1222.8806              1270.4253              1272.2299
 Red. masses --      2.7244                 1.9852                 7.0131
 Frc consts  --      2.4004                 1.8878                 6.6880
 IR Inten    --     16.8092               129.9350               249.1313

                     91                     92                     93
                      A                      A                      A
 Frequencies --   1275.0225              1276.0305              1278.2002
 Red. masses --      7.0055                10.8128                 6.8600
 Frc consts  --      6.7100                10.3731                 6.6035
 IR Inten    --    231.2739               211.3300                90.9470

                     94                     95                     96
                      A                      A                      A
 Frequencies --   1293.5770              1311.8477              1314.0126
 Red. masses --      1.9350                 7.1499                 2.7820
 Frc consts  --      1.9077                 7.2496                 2.8302
 IR Inten    --     56.2013               103.6638                67.2853

                     97                     98                     99
                      A                      A                      A
 Frequencies --   1318.7073              1332.8740              1348.5108
 Red. masses --      6.5705                 1.8227                 1.8293
 Frc consts  --      6.7320                 1.9078                 1.9599
 IR Inten    --    282.5891                40.6832                 0.7565

                    100                    101                    102
                      A                      A                      A
 Frequencies --   1348.8288              1381.5417              1391.4058
 Red. masses --      1.7910                 1.4025                 1.2387
 Frc consts  --      1.9199                 1.5772                 1.4130
 IR Inten    --      2.2591                 2.5893                13.2985

                    103                    104                    105
                      A                      A                      A
 Frequencies --   1414.7502              1430.5772              1500.1895
 Red. masses --      1.2870                 1.2911                 2.3656
 Frc consts  --      1.5177                 1.5568                 3.1368
 IR Inten    --     68.5721                76.6543                23.0322

                    106                    107                    108
                      A                      A                      A
 Frequencies --   1504.7527              1540.5168              1542.0848
 Red. masses --      2.3695                 2.3333                 2.3688
 Frc consts  --      3.1611                 3.2625                 3.3189
 IR Inten    --     19.1245                 6.6662                23.9965

                    109                    110                    111
                      A                      A                      A
 Frequencies --   1668.2760              1671.9555              1686.5415
 Red. masses --      5.9857                 6.0384                 6.2118
 Frc consts  --      9.8153                 9.9453                10.4103
 IR Inten    --      0.7535                 1.8586                 2.5987

                    112                    113                    114
                      A                      A                      A
 Frequencies --   1688.0058              3137.2781              3147.0355
 Red. masses --      6.2060                 1.0843                 1.0842
 Frc consts  --     10.4186                 6.2879                 6.3264
 IR Inten    --      1.9908                 4.1963                 5.7194

                    115                    116                    117
                      A                      A                      A
 Frequencies --   3268.1528              3268.2120              3274.5760
 Red. masses --      1.0859                 1.0859                 1.0887
 Frc consts  --      6.8333                 6.8338                 6.8783
 IR Inten    --      0.9180                 0.5517                 2.2659

                    118                    119                    120
                      A                      A                      A
 Frequencies --   3275.1941              3280.7278              3282.2660
 Red. masses --      1.0889                 1.0913                 1.0920
 Frc consts  --      6.8818                 6.9206                 6.9312
 IR Inten    --      4.3037                12.4481                15.8810

                    121                    122                    123
                      A                      A                      A
 Frequencies --   3288.2356              3289.5402              3293.8118
 Red. masses --      1.0948                 1.0949                 1.0984
 Frc consts  --      6.9746                 6.9804                 7.0211
 IR Inten    --      9.6519                12.8585                10.5016

                    124                    125                    126
                      A                      A                      A
 Frequencies --   3295.5446              3506.8638              3522.4203
 Red. masses --      1.0973                 1.0761                 1.0758
 Frc consts  --      7.0213                 7.7976                 7.8646
 IR Inten    --      9.0429               122.4066               110.0363

 - Thermochemistry -
 -------------------
 Temperature   298.150 Kelvin.  Pressure   1.00000 Atm.
 Atom     1 has atomic number  6 and mass  12.00000

 Molecular mass:   476.02992 amu.
 Principal axes and moments of inertia in atomic units:
                           1         2         3
     Eigenvalues --  9982.49319********************
           X            0.99998  -0.00445  -0.00356
           Y            0.00445   0.99999   0.00099
           Z            0.00355  -0.00100   0.99999
 This molecule is an asymmetric top.
 Rotational symmetry number  1.
 Warning -- assumption of classical behavior for rotation
           may cause significant error
 Rotational temperatures (Kelvin)      0.00868     0.00562     0.00389
 Rotational constants (GHZ):           0.18079     0.11719     0.08100
 Zero-point vibrational energy     797327.1 (Joules/Mol)
                                  190.56574 (Kcal/Mol)
 Warning -- explicit consideration of  46 degrees of freedom as
           vibrations may cause significant error
 Vibrational temperatures:     35.15    51.86    64.60    71.05    76.49
          (Kelvin)            101.03   109.38   119.84   133.13   144.62
                              151.44   159.13   176.99   208.10   246.33
                              260.22   287.32   296.25   299.28   343.79
                              356.06   362.34   383.84   402.25   403.89
                              408.56   456.11   474.90   502.35   521.21
                              570.73   586.53   590.06   610.95   667.44
                              707.32   711.28   735.80   743.71   762.93
                              785.97   793.57   801.19   820.39   835.19
                              865.68   894.33   901.16   901.39   940.07
                              964.83  1005.83  1013.58  1068.39  1079.86
                             1092.37  1100.76  1135.69  1182.04  1221.00
                             1228.26  1240.63  1255.74  1339.58  1344.94
                             1381.88  1411.73  1413.11  1453.97  1455.23
                             1458.21  1460.34  1527.87  1531.44  1541.95
                             1550.64  1562.31  1570.59  1613.38  1621.25
                             1691.50  1699.11  1701.36  1702.08  1722.77
                             1730.25  1749.10  1759.45  1827.86  1830.46
                             1834.47  1835.92  1839.04  1861.17  1887.46
                             1890.57  1897.33  1917.71  1940.21  1940.66
                             1987.73  2001.92  2035.51  2058.28  2158.44
                             2165.00  2216.46  2218.72  2400.28  2405.57
                             2426.56  2428.66  4513.84  4527.88  4702.14
                             4702.23  4711.38  4712.27  4720.24  4722.45
                             4731.04  4732.91  4739.06  4741.55  5045.59
                             5067.98

 Zero-point correction=                           0.303686 (Hartree/Particle)
 Thermal correction to Energy=                    0.331223
 Thermal correction to Enthalpy=                  0.332167
 Thermal correction to Gibbs Free Energy=         0.245013
 Sum of electronic and zero-point Energies=          -2422.808830
 Sum of electronic and thermal Energies=             -2422.781293
 Sum of electronic and thermal Enthalpies=           -2422.780349
 Sum of electronic and thermal Free Energies=        -2422.867502

                     E (Thermal)             CV                S
                      KCal/Mol        Cal/Mol-Kelvin    Cal/Mol-Kelvin
 Total                  207.845            104.092            183.430
 Electronic               0.000              0.000              0.000
 Translational            0.889              2.981             44.369
 Rotational               0.889              2.981             36.480
 Vibrational            206.068             98.131            102.581
 Vibration     1          0.593              1.985              6.237
 Vibration     2          0.594              1.982              5.465
 Vibration     3          0.595              1.979              5.030
 Vibration     4          0.595              1.978              4.842
 Vibration     5          0.596              1.976              4.696
 Vibration     6          0.598              1.968              4.147
 Vibration     7          0.599              1.965              3.991
 Vibration     8          0.600              1.961              3.812
 Vibration     9          0.602              1.955              3.606
 Vibration    10          0.604              1.949              3.444
 Vibration    11          0.605              1.945              3.355
 Vibration    12          0.606              1.941              3.258
 Vibration    13          0.610              1.930              3.052
 Vibration    14          0.616              1.908              2.742
 Vibration    15          0.626              1.878              2.422
 Vibration    16          0.630              1.866              2.320
 Vibration    17          0.638              1.840              2.136
 Vibration    18          0.640              1.831              2.080
 Vibration    19          0.641              1.828              2.061
 Vibration    20          0.657              1.781              1.811
 Vibration    21          0.661              1.767              1.748
 Vibration    22          0.664              1.760              1.718
 Vibration    23          0.672              1.734              1.617
 Vibration    24          0.680              1.711              1.536
 Vibration    25          0.680              1.709              1.529
 Vibration    26          0.682              1.703              1.510
 Vibration    27          0.704              1.641              1.325
 Vibration    28          0.713              1.615              1.260
 Vibration    29          0.726              1.577              1.170
 Vibration    30          0.736              1.550              1.112
 Vibration    31          0.763              1.477              0.975
 Vibration    32          0.772              1.454              0.935
 Vibration    33          0.774              1.448              0.926
 Vibration    34          0.787              1.417              0.876
 Vibration    35          0.821              1.330              0.755
 Vibration    36          0.847              1.269              0.679
 Vibration    37          0.850              1.263              0.672
 Vibration    38          0.867              1.225              0.630
 Vibration    39          0.872              1.213              0.617
 Vibration    40          0.885              1.183              0.587
 Vibration    41          0.901              1.148              0.552
 Vibration    42          0.907              1.136              0.541
 Vibration    43          0.912              1.125              0.530
 Vibration    44          0.926              1.096              0.504
 Vibration    45          0.937              1.074              0.484
 Vibration    46          0.960              1.028              0.447

 Normal termination of Gaussian 16 at Sat Dec  9 19:39:12 2023.
