 Gaussian 16, Revision C.01,
 Gaussian 16:  ES64L-G16RevC.01  3-Jul-2019

 -----------------------------------------------------------
 # m062x 6-31g(d) scrf=(iefpcm,solvent=benzene) freq=noraman
 -----------------------------------------------------------

 ----------
 Structure2
 ----------
 Symbolic Z-matrix:
 Charge =  0 Multiplicity = 1

                         Standard orientation:
 ---------------------------------------------------------------------
 Center     Atomic      Atomic             Coordinates (Angstroms)
 Number     Number       Type             X           Y           Z
 ---------------------------------------------------------------------
      1          6           0       -3.083909    1.073518   -0.151637
      2          6           0       -3.522800    0.337854   -1.437496
      3          6           0       -3.658419   -1.138356   -1.079451
      4          7           0       -1.624899    1.242545   -0.026518
      5          1           0       -3.630304    2.014593   -0.072039
      6          1           0       -4.514909    0.728687   -1.674102
      7          8           0       -2.731890    0.540307   -2.591335
      8          1           0       -2.732588   -1.674563   -1.292748
      9          1           0       -4.461018   -1.610854   -1.645160
     10          6           0       -3.578284    0.145218    0.939209
     11          6           0       -3.904221   -1.109041    0.409809
     12          6           0       -4.290012   -2.147065    1.257480
     13          6           0       -4.405375   -1.915317    2.629761
     14          6           0       -4.109741   -0.655797    3.155667
     15          6           0       -3.687309    0.374719    2.313445
     16          1           0       -4.505743   -3.128865    0.861069
     17          1           0       -4.716232   -2.715149    3.288400
     18          1           0       -4.193649   -0.483974    4.220450
     19          1           0       -3.432566    1.337943    2.733308
     20          1           0       -2.788820    1.469651   -2.837095
     21          1           0       -1.107875    0.469742    0.365929
     22          6           0       -0.923788    2.332678   -0.457821
     23         16           0       -1.583984    3.751649   -1.016537
     24          7           0        0.431849    2.272078   -0.362630
     25          1           0        0.894309    3.157990   -0.505329
     26          6           0        3.101923   -0.959572   -0.048910
     27          6           0        1.851985   -1.179009   -0.641492
     28          6           0        0.956331   -0.110128   -0.757991
     29          6           0        1.292560    1.162243   -0.271463
     30          6           0        2.551560    1.367331    0.296512
     31          6           0        3.463213    0.310867    0.417670
     32          1           0        3.802002   -1.780461    0.043226
     33          6           0        1.461991   -2.563874   -1.159485
     34          1           0        0.009200   -0.272530   -1.256659
     35          1           0        2.821329    2.349617    0.661557
     36          6           0        4.836051    0.541842    1.050704
     37          9           0        0.164456   -2.796761   -0.954090
     38          9           0        1.705842   -2.620524   -2.467533
     39          9           0        2.159709   -3.527125   -0.555319
     40          9           0        4.744145    0.330274    2.362449
     41          9           0        5.747741   -0.291473    0.547304
     42          9           0        5.255499    1.792086    0.849568
 ---------------------------------------------------------------------

 SCF Done:  E(RM062X) =  -1875.76738203     A.U. after   13 cycles

 The electronic state is 1-A.
 Alpha  occ. eigenvalues --  -89.87106 -25.29963 -25.29958 -25.29937 -25.29888
 Alpha  occ. eigenvalues --  -25.29376 -25.29314 -19.64292 -14.82122 -14.81455
 Alpha  occ. eigenvalues --  -10.81608 -10.81593 -10.68512 -10.63592 -10.60535
 Alpha  occ. eigenvalues --  -10.60318 -10.60316 -10.60150 -10.59221 -10.59204
 Alpha  occ. eigenvalues --  -10.59043 -10.56433 -10.56291 -10.56053 -10.55874
 Alpha  occ. eigenvalues --  -10.55698 -10.55681 -10.55268  -8.21902  -6.14025
 Alpha  occ. eigenvalues --   -6.13587  -6.13373  -1.47134  -1.47125  -1.37921
 Alpha  occ. eigenvalues --   -1.37894  -1.37678  -1.37643  -1.15033  -1.12396
 Alpha  occ. eigenvalues --   -1.04878  -0.99871  -0.97866  -0.91800  -0.91511
 Alpha  occ. eigenvalues --   -0.89750  -0.86057  -0.82965  -0.81777  -0.81578
 Alpha  occ. eigenvalues --   -0.81205  -0.79873  -0.74739  -0.73910  -0.71142
 Alpha  occ. eigenvalues --   -0.70188  -0.69782  -0.69510  -0.69454  -0.69364
 Alpha  occ. eigenvalues --   -0.68649  -0.66990  -0.66273  -0.64247  -0.62218
 Alpha  occ. eigenvalues --   -0.60873  -0.60255  -0.59204  -0.58258  -0.57472
 Alpha  occ. eigenvalues --   -0.57380  -0.57074  -0.56787  -0.56659  -0.55405
 Alpha  occ. eigenvalues --   -0.53550  -0.53442  -0.53326  -0.53061  -0.52517
 Alpha  occ. eigenvalues --   -0.52215  -0.51480  -0.51197  -0.51171  -0.50147
 Alpha  occ. eigenvalues --   -0.49120  -0.48942  -0.48432  -0.48236  -0.47345
 Alpha  occ. eigenvalues --   -0.45851  -0.45523  -0.45122  -0.43675  -0.43120
 Alpha  occ. eigenvalues --   -0.42790  -0.41380  -0.39933  -0.39273  -0.37676
 Alpha  occ. eigenvalues --   -0.34978  -0.34478  -0.31289  -0.30329  -0.30179
 Alpha  occ. eigenvalues --   -0.27834  -0.27270
 Alpha virt. eigenvalues --   -0.02087  -0.01646   0.01751   0.02562   0.04203
 Alpha virt. eigenvalues --    0.10285   0.11598   0.12839   0.13482   0.14927
 Alpha virt. eigenvalues --    0.15281   0.15673   0.16443   0.17431   0.18124

 Mulliken charges:
               1
     1  C   -0.083190
     2  C    0.129489
     3  C   -0.378533
     4  N   -0.615651
     5  H    0.223320
     6  H    0.163409
     7  O   -0.669071
     8  H    0.190229
     9  H    0.193417
    10  C    0.020571
    11  C    0.080314
    12  C   -0.213794
    13  C   -0.167005
    14  C   -0.176639
    15  C   -0.194161
    16  H    0.174087
    17  H    0.177567
    18  H    0.177118
    19  H    0.180382
    20  H    0.435651
    21  H    0.376361
    22  C    0.398719
    23  S   -0.344460
    24  N   -0.726824
    25  H    0.397519
    26  C   -0.209569
    27  C   -0.073917
    28  C   -0.223363
    29  C    0.308113
    30  C   -0.212856
    31  C   -0.073397
    32  H    0.212758
    33  C    0.846956
    34  H    0.223725
    35  H    0.210444
    36  C    0.845099
    37  F   -0.270696
    38  F   -0.260546
    39  F   -0.269948
    40  F   -0.262021
    41  F   -0.269182
    42  F   -0.270423
 Sum of Mulliken charges =  -0.00000

 Dipole moment (field-independent basis, Debye):
    X=             -0.6909    Y=             -2.2178    Z=              2.2847  Tot=              3.2582
 Quadrupole moment (field-independent basis, Debye-Ang):
   XX=           -160.8038   YY=           -175.0008   ZZ=           -164.8455
   XY=             12.0249   XZ=             -5.6940   YZ=              0.4639

  Exact polarizability:     253.214      -1.986     284.230      10.276     -12.165     203.474
 Approx polarizability:     253.377      -3.790     323.612      16.125      -4.089     234.801

 ******    4 imaginary frequencies (negative Signs) ******

                      1                      2                      3
                      A                      A                      A
 Frequencies --   -103.3281               -60.8863               -36.0725
 Red. masses --      2.3843                 3.3678                15.6308
 Frc consts  --      0.0150                 0.0074                 0.0120
 IR Inten    --     71.4714                35.7699                 1.3528

                      4                      5                      6
                      A                      A                      A
 Frequencies --    -30.3879                 5.9363                27.7588
 Red. masses --     17.7773                 8.2604                 8.7023
 Frc consts  --      0.0097                 0.0002                 0.0040
 IR Inten    --      0.2072                 5.8761                 1.9229

                      7                      8                      9
                      A                      A                      A
 Frequencies --     38.4684                46.4805                79.9159
 Red. masses --      8.1128                 4.7706                 8.2990
 Frc consts  --      0.0071                 0.0061                 0.0312
 IR Inten    --      3.4855                15.1041                 1.3163

                     10                     11                     12
                      A                      A                      A
 Frequencies --    102.0741               105.7170               109.1190
 Red. masses --      7.5975                 3.7315                 3.2856
 Frc consts  --      0.0466                 0.0246                 0.0230
 IR Inten    --      7.6297                43.5459                59.7315

                     13                     14                     15
                      A                      A                      A
 Frequencies --    138.4317               154.2767               170.8506
 Red. masses --      3.8187                 6.4424                 5.9517
 Frc consts  --      0.0431                 0.0903                 0.1024
 IR Inten    --     14.7636                 6.3935                 9.0995

                     16                     17                     18
                      A                      A                      A
 Frequencies --    192.6704               231.5646               250.8007
 Red. masses --      4.4148                 5.1062                12.5240
 Frc consts  --      0.0966                 0.1613                 0.4641
 IR Inten    --      6.0996                 1.9115                 2.4900

                     19                     20                     21
                      A                      A                      A
 Frequencies --    270.5316               281.9471               289.5521
 Red. masses --      6.0267                 7.8170                10.2497
 Frc consts  --      0.2599                 0.3661                 0.5063
 IR Inten    --     16.6228                29.5711                 0.4464

                     22                     23                     24
                      A                      A                      A
 Frequencies --    293.0023               318.9126               334.9607
 Red. masses --      5.4131                 5.0583                 5.1535
 Frc consts  --      0.2738                 0.3031                 0.3407
 IR Inten    --      3.2297                 4.7059                 4.5306

                     25                     26                     27
                      A                      A                      A
 Frequencies --    358.6406               381.2271               406.3862
 Red. masses --      9.4484                 4.6004                 8.9297
 Frc consts  --      0.7160                 0.3939                 0.8689
 IR Inten    --      4.2323                10.8188                 5.6825

                     28                     29                     30
                      A                      A                      A
 Frequencies --    426.7839               437.1248               445.2285
 Red. masses --      3.6934                 2.6525                 1.6115
 Frc consts  --      0.3964                 0.2986                 0.1882
 IR Inten    --      7.0502                49.1507                49.6691

                     31                     32                     33
                      A                      A                      A
 Frequencies --    450.8654               457.8161               511.8962
 Red. masses --      3.7123                 4.2705                 3.0400
 Frc consts  --      0.4446                 0.5274                 0.4693
 IR Inten    --     15.9080                 6.9684                20.8528

                     34                     35                     36
                      A                      A                      A
 Frequencies --    514.9422               525.8986               539.0859
 Red. masses --      1.7143                 8.1775                 7.8701
 Frc consts  --      0.2678                 1.3325                 1.3476
 IR Inten    --     77.6939                 1.0719                 5.8329

                     37                     38                     39
                      A                      A                      A
 Frequencies --    544.4116               573.5002               600.9519
 Red. masses --      3.6456                14.2686                 7.1744
 Frc consts  --      0.6366                 2.7650                 1.5266
 IR Inten    --      5.0872                 0.1396                 5.8921

                     40                     41                     42
                      A                      A                      A
 Frequencies --    612.3228               618.9837               633.0751
 Red. masses --      6.2025                 7.8740                 6.0744
 Frc consts  --      1.3702                 1.7775                 1.4344
 IR Inten    --     12.6446                 1.0868                11.5976

                     43                     44                     45
                      A                      A                      A
 Frequencies --    656.2170               675.1911               682.4131
 Red. masses --      6.2793                 6.7521                 3.5205
 Frc consts  --      1.5931                 1.8136                 0.9659
 IR Inten    --     14.9330                22.9497                14.0999

                     46                     47                     48
                      A                      A                      A
 Frequencies --    689.6930               700.1090               728.8430
 Red. masses --     11.9722                 6.9011                 2.5088
 Frc consts  --      3.3553                 1.9930                 0.7852
 IR Inten    --     58.6182                 8.1949                16.2316

                     49                     50                     51
                      A                      A                      A
 Frequencies --    736.4741               752.7620               758.4161
 Red. masses --      2.7656                13.4364                 1.4785
 Frc consts  --      0.8838                 4.4859                 0.5011
 IR Inten    --     15.5394                 6.9588                36.6074

                     52                     53                     54
                      A                      A                      A
 Frequencies --    818.1664               851.7582               877.4779
 Red. masses --      3.6812                 3.3370                 4.0971
 Frc consts  --      1.4518                 1.4264                 1.8586
 IR Inten    --      7.0468                 7.6802                 5.7961

                     55                     56                     57
                      A                      A                      A
 Frequencies --    882.1566               901.4936               906.3621
 Red. masses --      2.1596                 3.4774                 2.6585
 Frc consts  --      0.9902                 1.6650                 1.2867
 IR Inten    --      5.7173                 5.1531                19.0659

                     58                     59                     60
                      A                      A                      A
 Frequencies --    911.7007               928.3850               955.3902
 Red. masses --      2.0062                 1.4654                 1.4785
 Frc consts  --      0.9825                 0.7442                 0.7951
 IR Inten    --     25.9772                 8.0278                 2.6256

                     61                     62                     63
                      A                      A                      A
 Frequencies --    961.6936               983.0586               995.6480
 Red. masses --      1.4015                 5.1403                 1.9801
 Frc consts  --      0.7637                 2.9269                 1.1565
 IR Inten    --      4.9686                21.1740                17.8741

                     64                     65                     66
                      A                      A                      A
 Frequencies --   1003.1006              1012.3147              1061.4638
 Red. masses --      1.3220                 5.9611                 2.0641
 Frc consts  --      0.7838                 3.5992                 1.3702
 IR Inten    --      0.3282                 1.2328                 4.6306

                     67                     68                     69
                      A                      A                      A
 Frequencies --   1067.2508              1113.5924              1135.8228
 Red. masses --      2.3720                 2.3302                 1.7176
 Frc consts  --      1.5918                 1.7026                 1.3056
 IR Inten    --     35.5912                 6.8961                44.6350

                     70                     71                     72
                      A                      A                      A
 Frequencies --   1137.2760              1148.9225              1172.1405
 Red. masses --      2.2475                 1.8224                 1.4204
 Frc consts  --      1.7127                 1.4174                 1.1498
 IR Inten    --     43.2871                30.0491                 5.4041

                     73                     74                     75
                      A                      A                      A
 Frequencies --   1176.7771              1186.8572              1203.6294
 Red. masses --      1.6619                 1.6463                 2.0064
 Frc consts  --      1.3559                 1.3663                 1.7126
 IR Inten    --     21.9135                15.2998                 2.6887

                     76                     77                     78
                      A                      A                      A
 Frequencies --   1215.2757              1239.5382              1249.2647
 Red. masses --      1.4646                 2.8338                 2.1622
 Frc consts  --      1.2744                 2.5653                 1.9882
 IR Inten    --     39.4278               315.5328                66.2928

                     79                     80                     81
                      A                      A                      A
 Frequencies --   1253.5350              1284.1975              1289.5406
 Red. masses --      2.1532                 3.3313                 2.7228
 Frc consts  --      1.9935                 3.2369                 2.6677
 IR Inten    --     95.4174                54.3584                45.0328

                     82                     83                     84
                      A                      A                      A
 Frequencies --   1295.4032              1295.7485              1299.8242
 Red. masses --      8.2459                 9.2385                 3.1211
 Frc consts  --      8.1526                 9.1389                 3.1069
 IR Inten    --    408.8945               224.9926               245.8772

                     85                     86                     87
                      A                      A                      A
 Frequencies --   1303.1732              1304.1749              1317.9373
 Red. masses --      2.0985                 5.8383                 1.9322
 Frc consts  --      2.0998                 5.8507                 1.9774
 IR Inten    --    241.3137               534.6026                21.5207

                     88                     89                     90
                      A                      A                      A
 Frequencies --   1327.3817              1336.8714              1343.1867
 Red. masses --      1.7245                 1.6410                 2.9570
 Frc consts  --      1.7902                 1.7280                 3.1432
 IR Inten    --     64.1123               103.1750                52.6391

                     91                     92                     93
                      A                      A                      A
 Frequencies --   1358.3475              1384.2404              1394.4858
 Red. masses --      2.5520                 1.6037                 3.4569
 Frc consts  --      2.7743                 1.8105                 3.9607
 IR Inten    --      3.5147                39.6018               208.7440

                     94                     95                     96
                      A                      A                      A
 Frequencies --   1419.0539              1455.4146              1492.8514
 Red. masses --      2.6267                 1.4955                 1.7871
 Frc consts  --      3.1165                 1.8664                 2.3465
 IR Inten    --    282.0425                 5.5493                48.3192

                     97                     98                     99
                      A                      A                      A
 Frequencies --   1498.6252              1505.6072              1508.8786
 Red. masses --      1.6798                 4.1154                 2.6500
 Frc consts  --      2.2228                 5.4965                 3.5548
 IR Inten    --    139.9172               151.2018                 5.2219

                    100                    101                    102
                      A                      A                      A
 Frequencies --   1534.0445              1534.7312              1580.9152
 Red. masses --      2.2076                 2.4298                 2.1969
 Frc consts  --      3.0609                 3.3721                 3.2350
 IR Inten    --    255.4987               193.1636               829.2173

                    103                    104                    105
                      A                      A                      A
 Frequencies --   1664.7338              1670.9874              1683.3075
 Red. masses --      6.8173                 5.9696                 6.1041
 Frc consts  --     11.1314                 9.8208                10.1906
 IR Inten    --      1.3315                43.6780                15.8577

                    106                    107                    108
                      A                      A                      A
 Frequencies --   1686.6062              3107.1534              3133.5389
 Red. masses --      6.9063                 1.0853                 1.0617
 Frc consts  --     11.5750                 6.1732                 6.1421
 IR Inten    --      1.9365                44.5047                13.9073

                    109                    110                    111
                      A                      A                      A
 Frequencies --   3158.7810              3187.6438              3262.4450
 Red. masses --      1.0866                 1.1041                 1.0862
 Frc consts  --      6.3881                 6.6098                 6.8118
 IR Inten    --      3.5892                20.3928                 0.0344

                    112                    113                    114
                      A                      A                      A
 Frequencies --   3266.0276              3272.3034              3273.2118
 Red. masses --      1.0921                 1.0900                 1.0910
 Frc consts  --      6.8637                 6.8764                 6.8867
 IR Inten    --      2.7451                 5.6277                 1.5559

                    115                    116                    117
                      A                      A                      A
 Frequencies --   3275.6730              3280.5858              3286.9415
 Red. masses --      1.0916                 1.0937                 1.0973
 Frc consts  --      6.9008                 6.9353                 6.9852
 IR Inten    --      1.0836                21.1580                15.1920

                    118                    119                    120
                      A                      A                      A
 Frequencies --   3662.4692              3664.5014              3882.6140
 Red. masses --      1.0774                 1.0772                 1.0666
 Frc consts  --      8.5146                 8.5223                 9.4730
 IR Inten    --    128.3494                36.6177                56.1822

 - Thermochemistry -
 -------------------
 Temperature   298.150 Kelvin.  Pressure   1.00000 Atm.
 Atom     1 has atomic number  6 and mass  12.00000

 Molecular mass:   420.07310 amu.
 Principal axes and moments of inertia in atomic units:
                           1         2         3
     Eigenvalues --  8544.36189********************
           X            0.99992   0.00851  -0.00918
           Y           -0.00881   0.99939  -0.03387
           Z            0.00889   0.03395   0.99938
 This molecule is an asymmetric top.
 Rotational symmetry number  1.
 Warning -- assumption of classical behavior for rotation
           may cause significant error
 Rotational temperatures (Kelvin)      0.01014     0.00460     0.00406
 Rotational constants (GHZ):           0.21122     0.09578     0.08454
    4 imaginary frequencies ignored.
 Zero-point vibrational energy     799682.3 (Joules/Mol)
                                  191.12866 (Kcal/Mol)
 Warning -- explicit consideration of  37 degrees of freedom as
           vibrations may cause significant error
 Vibrational temperatures:      8.54    39.94    55.35    66.88   114.98
          (Kelvin)            146.86   152.10   157.00   199.17   221.97
                              245.82   277.21   333.17   360.85   389.23
                              405.66   416.60   421.56   458.84   481.93
                              516.00   548.50   584.70   614.05   628.93
                              640.58   648.69   658.70   736.50   740.89
                              756.65   775.62   783.29   825.14   864.64
                              881.00   890.58   910.85   944.15   971.45
                              981.84   992.31  1007.30  1048.64  1059.62
                             1083.06  1091.19  1177.16  1225.49  1262.49
                             1269.23  1297.05  1304.05  1311.73  1335.74
                             1374.59  1383.66  1414.40  1432.52  1443.24
                             1456.50  1527.21  1535.54  1602.21  1634.20
                             1636.29  1653.04  1686.45  1693.12  1707.62
                             1731.75  1748.51  1783.42  1797.41  1803.56
                             1847.67  1855.36  1863.80  1864.29  1870.16
                             1874.98  1876.42  1896.22  1909.81  1923.46
                             1932.55  1954.36  1991.61  2006.35  2041.70
                             2094.02  2147.88  2156.19  2166.23  2170.94
                             2207.15  2208.14  2274.58  2395.18  2404.18
                             2421.90  2426.65  4470.50  4508.46  4544.78
                             4586.31  4693.93  4699.09  4708.11  4709.42
                             4712.96  4720.03  4729.18  5269.48  5272.40
                             5586.22

 Zero-point correction=                           0.304583 (Hartree/Particle)
 Thermal correction to Energy=                    0.326183
 Thermal correction to Enthalpy=                  0.327127
 Thermal correction to Gibbs Free Energy=         0.251112
 Sum of electronic and zero-point Energies=          -1875.462799
 Sum of electronic and thermal Energies=             -1875.441199
 Sum of electronic and thermal Enthalpies=           -1875.440255
 Sum of electronic and thermal Free Energies=        -1875.516270

                     E (Thermal)             CV                S
                      KCal/Mol        Cal/Mol-Kelvin    Cal/Mol-Kelvin
 Total                  204.683             85.118            159.988
 Electronic               0.000              0.000              0.000
 Translational            0.889              2.981             43.996
 Rotational               0.889              2.981             36.484
 Vibrational            202.906             79.157             79.508
 Vibration     1          0.593              1.987              9.047
 Vibration     2          0.593              1.984              5.983
 Vibration     3          0.594              1.982              5.336
 Vibration     4          0.595              1.979              4.962
 Vibration     5          0.600              1.963              3.893
 Vibration     6          0.604              1.948              3.414
 Vibration     7          0.605              1.945              3.346
 Vibration     8          0.606              1.942              3.285
 Vibration     9          0.614              1.915              2.825
 Vibration    10          0.620              1.898              2.619
 Vibration    11          0.626              1.878              2.426
 Vibration    12          0.635              1.850              2.202
 Vibration    13          0.653              1.793              1.867
 Vibration    14          0.663              1.761              1.725
 Vibration    15          0.674              1.727              1.593
 Vibration    16          0.681              1.707              1.522
 Vibration    17          0.686              1.693              1.477
 Vibration    18          0.688              1.687              1.457
 Vibration    19          0.705              1.637              1.316
 Vibration    20          0.716              1.606              1.236
 Vibration    21          0.733              1.557              1.128
 Vibration    22          0.751              1.510              1.034
 Vibration    23          0.771              1.456              0.939
 Vibration    24          0.788              1.412              0.869
 Vibration    25          0.797              1.389              0.836
 Vibration    26          0.805              1.371              0.810
 Vibration    27          0.810              1.359              0.793
 Vibration    28          0.816              1.344              0.772
 Vibration    29          0.867              1.224              0.629
 Vibration    30          0.870              1.217              0.622
 Vibration    31          0.881              1.193              0.596
 Vibration    32          0.894              1.164              0.567
 Vibration    33          0.900              1.152              0.556
 Vibration    34          0.930              1.089              0.498
 Vibration    35          0.959              1.030              0.448
 Vibration    36          0.972              1.006              0.429
 Vibration    37          0.979              0.992              0.418

 Normal termination of Gaussian 16 at Sat Dec  9 19:53:40 2023.
