 Gaussian 16, Revision C.01,
 Gaussian 16:  ES64L-G16RevC.01  3-Jul-2019

 -----------------------------------------------------------
 # m062x 6-31g(d) scrf=(iefpcm,solvent=benzene) freq=noraman
 -----------------------------------------------------------

 ----------
 Structure1
 ----------
 Symbolic Z-matrix:
 Charge =  0 Multiplicity = 1

                         Standard orientation:
 ---------------------------------------------------------------------
 Center     Atomic      Atomic             Coordinates (Angstroms)
 Number     Number       Type             X           Y           Z
 ---------------------------------------------------------------------
      1          6           0        2.312662    0.181008   -0.442596
      2          6           0        4.854741   -1.043306   -0.646129
      3          6           0        4.644259    0.241009   -1.132189
      4          6           0        3.399350    0.841762   -1.032874
      5          1           0        5.829467   -1.502670   -0.730835
      6          1           0        5.454331    0.783698   -1.596599
      7          8           0        3.255341    2.105011   -1.536590
      8          6           0        2.509386   -1.141671    0.076963
      9          6           0        3.797370   -1.755806   -0.035413
     10          6           0        3.993377   -3.066879    0.467280
     11          6           0        2.945163   -3.756069    1.069591
     12          6           0        1.692891   -3.167324    1.191258
     13          6           0        1.468127   -1.881098    0.709918
     14          1           0        4.965718   -3.530590    0.380903
     15          1           0        3.104890   -4.755168    1.449540
     16          1           0        0.886516   -3.709859    1.664752
     17          1           0        0.486835   -1.441709    0.824142
     18          6           0       -1.595842    2.018812   -0.295439
     19          6           0        0.968587    0.844545   -0.382462
     20          6           0       -0.062982    0.406600   -1.227767
     21          6           0       -1.340248    0.969187   -1.176432
     22          1           0       -2.586176    2.450889   -0.254036
     23          8           0        0.194881   -0.609173   -2.113379
     24          6           0       -2.468744    0.456647   -2.078471
     25          6           0       -0.590509    2.508834    0.565373
     26          6           0        0.708915    1.914804    0.533650
     27          6           0        1.694476    2.415077    1.432681
     28          6           0        1.404746    3.460593    2.305005
     29          6           0        0.140303    4.035363    2.320251
     30          6           0       -0.854861    3.570815    1.466247
     31          1           0        2.682382    1.977679    1.443800
     32          1           0        2.167556    3.825737    2.978099
     33          1           0       -0.071724    4.844190    3.004902
     34          1           0       -1.839403    4.015876    1.489685
     35          1           0        2.365039    2.425924   -1.368033
     36          1           0        1.097974   -0.918910   -1.990516
     37          7           0       -3.716509    0.198855   -1.336653
     38          1           0       -2.632086    1.200901   -2.859923
     39          1           0       -2.169720   -0.453398   -2.601731
     40          6           0       -4.956584    0.298159   -2.110923
     41          6           0       -3.708566   -2.577288    1.806543
     42          6           0       -4.770484   -1.678272    1.710210
     43          6           0       -4.768593   -0.758426    0.658734
     44          6           0       -3.722545   -0.745291   -0.275328
     45          6           0       -2.699411   -1.689923   -0.086284
     46          7           0       -2.677666   -2.594622    0.926821
     47          1           0       -3.667205   -3.303551    2.605748
     48          1           0       -5.568162   -0.039342    0.590532
     49          1           0       -1.866535   -1.749593   -0.766453
     50          1           0       -4.932240    1.146355   -2.796851
     51          1           0       -5.838964    0.419758   -1.483045
     52          1           0       -5.109737   -0.608917   -2.698619
     53          1           0       -5.571194   -1.684801    2.434744
 ---------------------------------------------------------------------

 SCF Done:  E(RM062X) =  -1301.54838484     A.U. after   14 cycles

 The electronic state is 1-A.
 Alpha  occ. eigenvalues --  -19.67140 -19.66793 -14.77460 -14.75844 -10.62378
 Alpha  occ. eigenvalues --  -10.62125 -10.59435 -10.58719 -10.57583 -10.57417
 Alpha  occ. eigenvalues --  -10.57410 -10.56986 -10.56954 -10.56770 -10.56670
 Alpha  occ. eigenvalues --  -10.56567 -10.56371 -10.56182 -10.56108 -10.56107
 Alpha  occ. eigenvalues --  -10.56063 -10.55605 -10.55578 -10.55509 -10.55442
 Alpha  occ. eigenvalues --  -10.55322 -10.55242 -10.55007 -10.54991 -10.54918
 Alpha  occ. eigenvalues --  -10.54778  -1.18533  -1.18195  -1.05396  -1.02383
 Alpha  occ. eigenvalues --   -0.98762  -0.97741  -0.92866  -0.92274  -0.89965
 Alpha  occ. eigenvalues --   -0.88880  -0.85833  -0.85587  -0.84847  -0.83986
 Alpha  occ. eigenvalues --   -0.82023  -0.80696  -0.78952  -0.75420  -0.74023
 Alpha  occ. eigenvalues --   -0.71729  -0.70902  -0.69415  -0.69238  -0.68818
 Alpha  occ. eigenvalues --   -0.66902  -0.65856  -0.62910  -0.62469  -0.60406
 Alpha  occ. eigenvalues --   -0.59857  -0.59290  -0.58202  -0.56801  -0.56043
 Alpha  occ. eigenvalues --   -0.55240  -0.53957  -0.52781  -0.52546  -0.52179
 Alpha  occ. eigenvalues --   -0.51806  -0.51467  -0.51132  -0.50015  -0.49817
 Alpha  occ. eigenvalues --   -0.49388  -0.48521  -0.48110  -0.47131  -0.46931
 Alpha  occ. eigenvalues --   -0.46766  -0.45975  -0.45694  -0.45594  -0.45396
 Alpha  occ. eigenvalues --   -0.45114  -0.44963  -0.44405  -0.44054  -0.42944
 Alpha  occ. eigenvalues --   -0.42147  -0.40525  -0.39799  -0.39654  -0.38116
 Alpha  occ. eigenvalues --   -0.37422  -0.37278  -0.35421  -0.34632  -0.33263
 Alpha  occ. eigenvalues --   -0.32484  -0.31653  -0.28706  -0.28483  -0.26117
 Alpha  occ. eigenvalues --   -0.25432  -0.24854
 Alpha virt. eigenvalues --   -0.02351  -0.01313   0.01499   0.02572   0.03089
 Alpha virt. eigenvalues --    0.03668   0.05634   0.06756   0.12753   0.12906
 Alpha virt. eigenvalues --    0.14085   0.14435   0.14860   0.14953   0.15522

 Mulliken charges:
               1
     1  C   -0.142763
     2  C   -0.203291
     3  C   -0.199088
     4  C    0.324660
     5  H    0.183741
     6  H    0.186341
     7  O   -0.681993
     8  C    0.053774
     9  C    0.075656
    10  C   -0.210066
    11  C   -0.178524
    12  C   -0.165773
    13  C   -0.211090
    14  H    0.173876
    15  H    0.171878
    16  H    0.185465
    17  H    0.182823
    18  C   -0.234776
    19  C   -0.109082
    20  C    0.276516
    21  C    0.061964
    22  H    0.180561
    23  O   -0.688388
    24  C   -0.215433
    25  C    0.086688
    26  C    0.056234
    27  C   -0.216964
    28  C   -0.164701
    29  C   -0.180740
    30  C   -0.206724
    31  H    0.180548
    32  H    0.176262
    33  H    0.171858
    34  H    0.174618
    35  H    0.448141
    36  H    0.454530
    37  N   -0.535457
    38  H    0.196596
    39  H    0.189298
    40  C   -0.341264
    41  C    0.002879
    42  C   -0.177831
    43  C   -0.179280
    44  C    0.299373
    45  C   -0.021098
    46  N   -0.468625
    47  H    0.173632
    48  H    0.179910
    49  H    0.178535
    50  H    0.178755
    51  H    0.180851
    52  H    0.166073
    53  H    0.180916
 Sum of Mulliken charges =  -0.00000

 Dipole moment (field-independent basis, Debye):
    X=             -2.0920    Y=              1.6601    Z=             -0.2043  Tot=              2.6784
 Quadrupole moment (field-independent basis, Debye-Ang):
   XX=           -147.6982   YY=           -173.7996   ZZ=           -173.6425
   XY=            -13.9254   XZ=              2.6102   YZ=              0.9115

  Exact polarizability:     393.450     -28.296     368.890     -12.992     -11.096     270.868
 Approx polarizability:     432.512     -30.162     419.735     -17.568     -13.176     331.913

 ******    3 imaginary frequencies (negative Signs) ******

                      1                      2                      3
                      A                      A                      A
 Frequencies --   -220.9358              -110.6072               -51.7693
 Red. masses --      1.0648                 1.2631                 2.3449
 Frc consts  --      0.0306                 0.0091                 0.0037
 IR Inten    --      0.5194                42.7650                23.7864

                      4                      5                      6
                      A                      A                      A
 Frequencies --     25.5552                39.6615                40.9642
 Red. masses --      6.0689                 5.2724                 4.4453
 Frc consts  --      0.0023                 0.0049                 0.0044
 IR Inten    --      0.4225                 1.0535                 2.7215

                      7                      8                      9
                      A                      A                      A
 Frequencies --     49.1644                60.3220                73.0420
 Red. masses --      3.2663                 3.9141                 3.9102
 Frc consts  --      0.0047                 0.0084                 0.0123
 IR Inten    --      4.9645                 3.9684                 1.5911

                     10                     11                     12
                      A                      A                      A
 Frequencies --     92.1828               123.1622               124.9550
 Red. masses --      4.9799                 1.9858                 4.5939
 Frc consts  --      0.0249                 0.0177                 0.0423
 IR Inten    --      1.0945                40.7831                 7.3847

                     13                     14                     15
                      A                      A                      A
 Frequencies --    133.7879               144.6086               151.3199
 Red. masses --      6.0192                 2.6656                 4.5122
 Frc consts  --      0.0635                 0.0328                 0.0609
 IR Inten    --      8.2837                52.2362                 4.1634

                     16                     17                     18
                      A                      A                      A
 Frequencies --    177.6029               187.3721               230.0957
 Red. masses --      5.0598                 5.3388                 4.1913
 Frc consts  --      0.0940                 0.1104                 0.1307
 IR Inten    --      2.5760                 2.4038                 8.3981

                     19                     20                     21
                      A                      A                      A
 Frequencies --    246.9620               266.8392               297.1194
 Red. masses --      3.1751                 3.3681                 4.0153
 Frc consts  --      0.1141                 0.1413                 0.2088
 IR Inten    --     16.6166                 6.2710                 3.8048

                     22                     23                     24
                      A                      A                      A
 Frequencies --    315.8624               326.6010               344.0953
 Red. masses --      3.5787                 4.8056                 2.9261
 Frc consts  --      0.2104                 0.3020                 0.2041
 IR Inten    --      4.3795                 1.8502                 3.3272

                     25                     26                     27
                      A                      A                      A
 Frequencies --    360.5392               390.1288               391.7573
 Red. masses --      5.1177                 4.7825                 5.4015
 Frc consts  --      0.3920                 0.4289                 0.4884
 IR Inten    --      0.2837                 7.0946                 4.7790

                     28                     29                     30
                      A                      A                      A
 Frequencies --    435.8189               438.4021               441.3131
 Red. masses --      3.4050                 6.6780                 4.2831
 Frc consts  --      0.3810                 0.7562                 0.4915
 IR Inten    --      1.4149                 0.3757                 5.6223

                     31                     32                     33
                      A                      A                      A
 Frequencies --    443.1691               451.2021               458.7556
 Red. masses --      3.8297                 4.2912                 3.7724
 Frc consts  --      0.4432                 0.5147                 0.4678
 IR Inten    --      6.9995                 8.0490                 3.8152

                     34                     35                     36
                      A                      A                      A
 Frequencies --    498.9981               516.6092               524.3078
 Red. masses --      3.6719                 4.7558                 5.7042
 Frc consts  --      0.5387                 0.7478                 0.9239
 IR Inten    --      6.1879                19.6446                 3.4642

                     37                     38                     39
                      A                      A                      A
 Frequencies --    538.8008               540.7730               548.1836
 Red. masses --      4.4553                 3.7585                 3.5327
 Frc consts  --      0.7620                 0.6476                 0.6255
 IR Inten    --      1.3512                 3.7144                 0.5343

                     40                     41                     42
                      A                      A                      A
 Frequencies --    555.6289               575.3011               598.3098
 Red. masses --      3.5919                 3.7918                 4.3235
 Frc consts  --      0.6534                 0.7394                 0.9119
 IR Inten    --      0.4837                 8.5878                13.2092

                     43                     44                     45
                      A                      A                      A
 Frequencies --    629.0927               634.7863               641.0417
 Red. masses --      5.9041                 5.4926                 5.9751
 Frc consts  --      1.3767                 1.3040                 1.4467
 IR Inten    --      7.9148                11.5789                 1.7367

                     46                     47                     48
                      A                      A                      A
 Frequencies --    672.6605               691.9603               699.0648
 Red. masses --      5.3218                 6.3103                 3.7342
 Frc consts  --      1.4187                 1.7802                 1.0752
 IR Inten    --      4.1293                18.2488                 3.7460

                     49                     50                     51
                      A                      A                      A
 Frequencies --    723.1268               724.1246               733.5909
 Red. masses --      5.9417                 1.7563                 5.7364
 Frc consts  --      1.8306                 0.5426                 1.8188
 IR Inten    --      3.8610                45.1833                 4.2493

                     52                     53                     54
                      A                      A                      A
 Frequencies --    748.9824               752.5815               770.0966
 Red. masses --      1.3603                 1.3648                 4.2035
 Frc consts  --      0.4496                 0.4554                 1.4688
 IR Inten    --     28.8592                26.0370                 8.2641

                     55                     56                     57
                      A                      A                      A
 Frequencies --    777.8813               780.4088               802.5470
 Red. masses --      4.1685                 5.0437                 5.5094
 Frc consts  --      1.4861                 1.8099                 2.0907
 IR Inten    --      3.7242                 2.0261                 0.5063

                     58                     59                     60
                      A                      A                      A
 Frequencies --    814.2263               827.6157               860.4151
 Red. masses --      2.0592                 1.5128                 1.4727
 Frc consts  --      0.8043                 0.6105                 0.6423
 IR Inten    --     17.5861                48.4344                 3.3637

                     61                     62                     63
                      A                      A                      A
 Frequencies --    870.6278               876.8024               896.5963
 Red. masses --      4.0097                 1.6752                 1.9470
 Frc consts  --      1.7907                 0.7588                 0.9222
 IR Inten    --      0.3066                 5.1855                22.7614

                     64                     65                     66
                      A                      A                      A
 Frequencies --    906.4668               914.5467               936.3792
 Red. masses --      1.3977                 2.5642                 1.4937
 Frc consts  --      0.6766                 1.2636                 0.7716
 IR Inten    --      5.6465                 7.2197                 5.0219

                     67                     68                     69
                      A                      A                      A
 Frequencies --    937.2685               955.4294               958.1795
 Red. masses --      5.0953                 1.3161                 1.4141
 Frc consts  --      2.6372                 0.7078                 0.7649
 IR Inten    --     11.5792                 0.2056                 1.7622

                     70                     71                     72
                      A                      A                      A
 Frequencies --    967.2574               969.7955               981.8795
 Red. masses --      2.1679                 1.4744                 1.3916
 Frc consts  --      1.1950                 0.8170                 0.7905
 IR Inten    --      5.6339                 2.9016                 0.5878

                     73                     74                     75
                      A                      A                      A
 Frequencies --    991.7225               996.0007               997.0555
 Red. masses --      2.5884                 2.6206                 1.7522
 Frc consts  --      1.4999                 1.5317                 1.0263
 IR Inten    --     31.2900                 6.5177                 2.9006

                     76                     77                     78
                      A                      A                      A
 Frequencies --   1004.4087              1031.2942              1060.7838
 Red. masses --      1.3128                 4.1103                 3.0594
 Frc consts  --      0.7803                 2.5757                 2.0283
 IR Inten    --      0.1231                 1.9143                 8.4743

                     79                     80                     81
                      A                      A                      A
 Frequencies --   1067.9195              1081.4650              1082.9570
 Red. masses --      2.6723                 1.9027                 1.9046
 Frc consts  --      1.7956                 1.3111                 1.3160
 IR Inten    --     24.5977                 3.7814                 2.9928

                     82                     83                     84
                      A                      A                      A
 Frequencies --   1112.7578              1122.6409              1136.5090
 Red. masses --      2.0767                 1.6664                 1.4598
 Frc consts  --      1.5151                 1.2374                 1.1109
 IR Inten    --     14.0573                34.3146                19.2859

                     85                     86                     87
                      A                      A                      A
 Frequencies --   1138.2788              1150.3077              1153.8913
 Red. masses --      1.6576                 1.3327                 1.5558
 Frc consts  --      1.2654                 1.0390                 1.2205
 IR Inten    --     50.0546                 1.8212                18.1632

                     88                     89                     90
                      A                      A                      A
 Frequencies --   1165.7545              1171.9475              1186.7152
 Red. masses --      1.4191                 1.2860                 1.3015
 Frc consts  --      1.1362                 1.0407                 1.0799
 IR Inten    --     38.2734                 4.2195                45.4128

                     91                     92                     93
                      A                      A                      A
 Frequencies --   1196.6946              1202.0808              1209.0818
 Red. masses --      2.9343                 1.3869                 1.5161
 Frc consts  --      2.4758                 1.1807                 1.3058
 IR Inten    --     21.1010               150.3086                42.7729

                     94                     95                     96
                      A                      A                      A
 Frequencies --   1226.7343              1232.5535              1233.3187
 Red. masses --      1.9806                 1.9653                 2.0578
 Frc consts  --      1.7561                 1.7591                 1.8442
 IR Inten    --      9.7853                76.2308                18.8273

                     97                     98                     99
                      A                      A                      A
 Frequencies --   1242.9845              1275.9773              1282.5090
 Red. masses --      1.8873                 1.7647                 1.8737
 Frc consts  --      1.7180                 1.6928                 1.8158
 IR Inten    --     76.7786                19.5713                34.1468

                    100                    101                    102
                      A                      A                      A
 Frequencies --   1293.2521              1307.7672              1322.1309
 Red. masses --      2.2887                 2.2777                 2.4447
 Frc consts  --      2.2553                 2.2952                 2.5178
 IR Inten    --     70.4106                12.0157                70.6329

                    103                    104                    105
                      A                      A                      A
 Frequencies --   1328.8747              1350.4757              1354.0792
 Red. masses --      1.9346                 3.5177                 2.7402
 Frc consts  --      2.0129                 3.7799                 2.9601
 IR Inten    --     38.5400               180.5190                 2.7672

                    106                    107                    108
                      A                      A                      A
 Frequencies --   1360.7816              1382.2192              1397.4081
 Red. masses --      1.4091                 2.3632                 1.7045
 Frc consts  --      1.5373                 2.6601                 1.9611
 IR Inten    --      7.8954                63.0769                40.7823

                    109                    110                    111
                      A                      A                      A
 Frequencies --   1421.9043              1425.4529              1435.4183
 Red. masses --      5.9469                 7.9590                 3.2309
 Frc consts  --      7.0840                 9.5283                 3.9223
 IR Inten    --      6.1712                33.4531                 8.9203

                    112                    113                    114
                      A                      A                      A
 Frequencies --   1457.8022              1480.1970              1482.0959
 Red. masses --      2.6555                 1.2327                 2.5119
 Frc consts  --      3.3250                 1.5912                 3.2509
 IR Inten    --     45.0390                10.8748                14.0584

                    115                    116                    117
                      A                      A                      A
 Frequencies --   1487.0134              1495.6003              1509.7363
 Red. masses --      2.8999                 2.9043                 3.0198
 Frc consts  --      3.7780                 3.8275                 4.0554
 IR Inten    --     39.1162                22.8148                62.8980

                    118                    119                    120
                      A                      A                      A
 Frequencies --   1510.9421              1520.7152              1528.2847
 Red. masses --      1.5688                 1.2644                 1.0855
 Frc consts  --      2.1101                 1.7228                 1.4938
 IR Inten    --     45.8610                17.9723                 7.0528

                    121                    122                    123
                      A                      A                      A
 Frequencies --   1538.5246              1602.6165              1619.0343
 Red. masses --      1.1112                 5.5689                 5.7075
 Frc consts  --      1.5497                 8.4272                 8.8147
 IR Inten    --     29.5829               110.0451               118.3663

                    124                    125                    126
                      A                      A                      A
 Frequencies --   1628.2351              1631.3093              1633.6375
 Red. masses --      4.9222                 5.3447                 5.1339
 Frc consts  --      7.6885                 8.3800                 8.0725
 IR Inten    --      0.3912                46.5843                 0.9587

                    127                    128                    129
                      A                      A                      A
 Frequencies --   1637.3341              1671.4459              1673.2954
 Red. masses --      5.8459                 6.8841                 6.5654
 Frc consts  --      9.2338                11.3313                10.8306
 IR Inten    --      8.0843                20.1328                34.2457

                    130                    131                    132
                      A                      A                      A
 Frequencies --   1681.3669              1690.6536              3104.1910
 Red. masses --      7.1412                 7.1193                 1.0397
 Frc consts  --     11.8945                11.9893                 5.9026
 IR Inten    --     11.3912                13.8511                98.1117

                    133                    134                    135
                      A                      A                      A
 Frequencies --   3124.5243              3160.6130              3171.5771
 Red. masses --      1.0610                 1.1032                 1.0976
 Frc consts  --      6.1031                 6.4930                 6.5051
 IR Inten    --     41.1563                12.4135                28.2568

                    136                    137                    138
                      A                      A                      A
 Frequencies --   3200.2213              3268.6963              3268.8283
 Red. masses --      1.1031                 1.0858                 1.0859
 Frc consts  --      6.6560                 6.8354                 6.8365
 IR Inten    --     20.1718                 0.4560                 1.2505

                    139                    140                    141
                      A                      A                      A
 Frequencies --   3277.5832              3277.7966              3277.9727
 Red. masses --      1.0904                 1.0883                 1.0897
 Frc consts  --      6.9017                 6.8889                 6.8986
 IR Inten    --      2.7364                11.4089                 1.0072

                    142                    143                    144
                      A                      A                      A
 Frequencies --   3279.8176              3281.2352              3284.5135
 Red. masses --      1.0908                 1.0894                 1.0930
 Frc consts  --      6.9132                 6.9106                 6.9472
 IR Inten    --      4.0846                 1.3997                20.7293

                    145                    146                    147
                      A                      A                      A
 Frequencies --   3285.7971              3292.3354              3293.5111
 Red. masses --      1.0929                 1.0978                 1.0974
 Frc consts  --      6.9517                 7.0112                 7.0133
 IR Inten    --     20.8544                19.8346                19.5046

                    148                    149                    150
                      A                      A                      A
 Frequencies --   3296.4187              3297.1940              3317.8004
 Red. masses --      1.0938                 1.0944                 1.0930
 Frc consts  --      7.0026                 7.0098                 7.0888
 IR Inten    --     23.5091                 9.2311                 8.7091

                    151                    152                    153
                      A                      A                      A
 Frequencies --   3321.4082              3883.7224              3903.9759
 Red. masses --      1.0908                 1.0654                 1.0656
 Frc consts  --      7.0902                 9.4680                 9.5686
 IR Inten    --      6.9758               165.2479               191.5770

 - Thermochemistry -
 -------------------
 Temperature   298.150 Kelvin.  Pressure   1.00000 Atm.
 Atom     1 has atomic number  6 and mass  12.00000

 Molecular mass:   406.16813 amu.
 Principal axes and moments of inertia in atomic units:
                           1         2         3
     Eigenvalues --  8817.13925********************
           X            0.99992  -0.01010   0.00769
           Y            0.01009   0.99995   0.00090
           Z           -0.00770  -0.00082   0.99997
 This molecule is an asymmetric top.
 Rotational symmetry number  1.
 Warning -- assumption of classical behavior for rotation
           may cause significant error
 Rotational temperatures (Kelvin)      0.00982     0.00563     0.00454
 Rotational constants (GHZ):           0.20469     0.11738     0.09452
    3 imaginary frequencies ignored.
 Zero-point vibrational energy    1125078.2 (Joules/Mol)
                                  268.90015 (Kcal/Mol)
 Warning -- explicit consideration of  39 degrees of freedom as
           vibrations may cause significant error
 Vibrational temperatures:     36.77    57.06    58.94    70.74    86.79
          (Kelvin)            105.09   132.63   177.20   179.78   192.49
                              208.06   217.72   255.53   269.59   331.06
                              355.32   383.92   427.49   454.46   469.91
                              495.08   518.74   561.31   563.65   627.05
                              630.76   634.95   637.62   649.18   660.05
                              717.95   743.29   754.36   775.21   778.05
                              788.71   799.43   827.73   860.83   905.12
                              913.32   922.32   967.81   995.58  1005.80
                             1040.42  1041.85  1055.47  1077.62  1082.80
                             1108.00  1119.20  1122.83  1154.69  1171.49
                             1190.75  1237.95  1252.64  1261.52  1290.00
                             1304.20  1315.83  1347.24  1348.52  1374.65
                             1378.61  1391.67  1395.32  1412.71  1426.87
                             1433.02  1434.54  1445.12  1483.80  1526.23
                             1536.50  1555.99  1558.13  1601.01  1615.23
                             1635.18  1637.73  1655.04  1660.19  1677.26
                             1686.17  1707.42  1721.78  1729.53  1739.60
                             1765.00  1773.37  1774.47  1788.38  1835.85
                             1845.24  1860.70  1881.59  1902.25  1911.95
                             1943.03  1948.22  1957.86  1988.71  2010.56
                             2045.80  2050.91  2065.25  2097.45  2129.67
                             2132.41  2139.48  2151.84  2172.17  2173.91
                             2187.97  2198.86  2213.59  2305.81  2329.43
                             2342.67  2347.09  2350.44  2355.76  2404.84
                             2407.50  2419.11  2432.47  4466.24  4495.49
                             4547.42  4563.19  4604.40  4702.92  4703.11
                             4715.71  4716.02  4716.27  4718.93  4720.97
                             4725.68  4727.53  4736.94  4738.63  4742.81
                             4743.93  4773.57  4778.77  5587.81  5616.95

 Zero-point correction=                           0.428520 (Hartree/Particle)
 Thermal correction to Energy=                    0.452242
 Thermal correction to Enthalpy=                  0.453186
 Thermal correction to Gibbs Free Energy=         0.375003
 Sum of electronic and zero-point Energies=          -1301.119865
 Sum of electronic and thermal Energies=             -1301.096143
 Sum of electronic and thermal Enthalpies=           -1301.095199
 Sum of electronic and thermal Free Energies=        -1301.173382

                     E (Thermal)             CV                S
                      KCal/Mol        Cal/Mol-Kelvin    Cal/Mol-Kelvin
 Total                  283.786             96.904            164.550
 Electronic               0.000              0.000              0.000
 Translational            0.889              2.981             43.896
 Rotational               0.889              2.981             36.202
 Vibrational            282.008             90.942             84.452
 Vibration     1          0.593              1.985              6.148
 Vibration     2          0.594              1.981              5.276
 Vibration     3          0.594              1.981              5.212
 Vibration     4          0.595              1.978              4.851
 Vibration     5          0.597              1.973              4.447
 Vibration     6          0.599              1.967              4.070
 Vibration     7          0.602              1.955              3.613
 Vibration     8          0.610              1.930              3.050
 Vibration     9          0.610              1.928              3.022
 Vibration    10          0.613              1.920              2.891
 Vibration    11          0.616              1.908              2.742
 Vibration    12          0.619              1.901              2.656
 Vibration    13          0.628              1.870              2.353
 Vibration    14          0.632              1.857              2.254
 Vibration    15          0.652              1.795              1.878
 Vibration    16          0.661              1.768              1.752
 Vibration    17          0.672              1.734              1.617
 Vibration    18          0.691              1.679              1.433
 Vibration    19          0.703              1.643              1.331
 Vibration    20          0.710              1.622              1.277
 Vibration    21          0.723              1.587              1.193
 Vibration    22          0.735              1.554              1.120
 Vibration    23          0.758              1.491              1.000
 Vibration    24          0.759              1.488              0.993
 Vibration    25          0.796              1.392              0.840
 Vibration    26          0.799              1.386              0.832
 Vibration    27          0.801              1.380              0.822
 Vibration    28          0.803              1.376              0.817
 Vibration    29          0.810              1.358              0.792
 Vibration    30          0.817              1.342              0.770
 Vibration    31          0.854              1.252              0.661
 Vibration    32          0.872              1.213              0.618
 Vibration    33          0.879              1.196              0.600
 Vibration    34          0.894              1.164              0.568
 Vibration    35          0.896              1.160              0.564
 Vibration    36          0.903              1.144              0.548
 Vibration    37          0.911              1.127              0.533
 Vibration    38          0.932              1.085              0.494
 Vibration    39          0.956              1.035              0.453

 Normal termination of Gaussian 16 at Sat Dec  9 20:16:23 2023.
