 Gaussian 16, Revision C.01,
 Gaussian 16:  ES64L-G16RevC.01  3-Jul-2019

 -----------------------------------------------------------
 # m062x 6-31g(d) scrf=(iefpcm,solvent=benzene) freq=noraman
 -----------------------------------------------------------

 ------------
 Structure901
 ------------
 Symbolic Z-matrix:
 Charge =  0 Multiplicity = 1

                         Standard orientation:
 ---------------------------------------------------------------------
 Center     Atomic      Atomic             Coordinates (Angstroms)
 Number     Number       Type             X           Y           Z
 ---------------------------------------------------------------------
      1          6           0        2.091910   -2.103890    0.503660
      2          6           0        2.466946   -0.892750    1.086974
      3          6           0        2.101142   -0.602505    2.401279
      4          6           0        1.331143   -1.511200    3.123573
      5          6           0        0.947998   -2.713973    2.533039
      6          6           0        1.331114   -3.017803    1.228146
      7          1           0        2.382007   -2.331143   -0.512707
      8          7           0        3.203020    0.047281    0.363626
      9          1           0        2.385533    0.333566    2.858519
     10          1           0        1.022700   -1.280929    4.133311
     11          1           0        0.344713   -3.414835    3.092566
     12          1           0        1.034834   -3.952794    0.776478
     13          1           0        3.749441    0.713459    0.879196
     14         16           0        2.521863    0.804143   -1.064989
     15          8           0        2.023945   -0.258627   -1.941752
     16          8           0        3.519368    1.777696   -1.514980
     17          6           0       -1.114665    3.118096    0.469968
     18          6           0       -1.111562    1.720327    0.471271
     19          6           0        0.000198    1.020536   -0.000129
     20          6           0        1.112309    1.719762   -0.471596
     21          6           0        1.116279    3.117511   -0.470004
     22          6           0        0.001060    3.813516   -0.000035
     23          1           0       -1.974630    3.663592    0.837223
     24          1           0       -0.000130   -0.063871   -0.000247
     25          1           0        1.976586    3.662461   -0.837291
     26          1           0        0.001380    4.894379    0.000057
     27         16           0       -2.521752    0.805554    1.064431
     28          8           0       -3.518810    1.779743    1.513993
     29          7           0       -3.202826    0.048808   -0.364305
     30          8           0       -2.024627   -0.257345    1.941522
     31          1           0       -3.748522    0.715299   -0.880360
     32          6           0       -0.949067   -2.714937   -2.531682
     33          6           0       -1.333617   -3.018286   -1.227117
     34          6           0       -2.093945   -2.103442   -0.503263
     35          6           0       -2.467224   -0.891972   -1.087003
     36          6           0       -2.100045   -0.602262   -2.401104
     37          6           0       -1.330376   -1.511838   -3.122616
     38          1           0       -0.346088   -3.416465   -3.090622
     39          1           0       -1.038647   -3.953515   -0.775099
     40          1           0       -2.385130   -2.330261    0.512858
     41          1           0       -2.382949    0.334143   -2.858518
     42          1           0       -1.020832   -1.281938   -4.132130
 ---------------------------------------------------------------------

 SCF Done:  E(RM062X) =  -1901.67556405     A.U. after   14 cycles

 The electronic state is 1-A.
 Alpha  occ. eigenvalues --  -90.17862 -90.17862 -19.65812 -19.65812 -19.65775
 Alpha  occ. eigenvalues --  -19.65775 -14.80872 -14.80872 -10.61497 -10.61495
 Alpha  occ. eigenvalues --  -10.60437 -10.60233 -10.60233 -10.59852 -10.59849
 Alpha  occ. eigenvalues --  -10.58934 -10.56054 -10.56054 -10.55818 -10.55817
 Alpha  occ. eigenvalues --  -10.55794 -10.55794 -10.55603 -10.55603 -10.55388
 Alpha  occ. eigenvalues --  -10.55387  -8.48803  -8.48803  -6.41003  -6.41003
 Alpha  occ. eigenvalues --   -6.40951  -6.40951  -6.40878  -6.40878  -1.24762
 Alpha  occ. eigenvalues --   -1.24743  -1.13881  -1.13879  -1.05671  -1.05645
 Alpha  occ. eigenvalues --   -1.00679  -0.95466  -0.95438  -0.90650  -0.89181
 Alpha  occ. eigenvalues --   -0.85177  -0.85024  -0.84173  -0.84040  -0.78162
 Alpha  occ. eigenvalues --   -0.77687  -0.72451  -0.71088  -0.70669  -0.70496
 Alpha  occ. eigenvalues --   -0.69226  -0.67158  -0.64564  -0.62160  -0.61987
 Alpha  occ. eigenvalues --   -0.61297  -0.60759  -0.57878  -0.57784  -0.57376
 Alpha  occ. eigenvalues --   -0.57001  -0.56560  -0.54117  -0.53615  -0.53257
 Alpha  occ. eigenvalues --   -0.52660  -0.52541  -0.51152  -0.50921  -0.49627
 Alpha  occ. eigenvalues --   -0.49461  -0.48183  -0.47046  -0.46357  -0.45771
 Alpha  occ. eigenvalues --   -0.45762  -0.43607  -0.43506  -0.42154  -0.42058
 Alpha  occ. eigenvalues --   -0.41692  -0.41519  -0.41407  -0.41029  -0.39995
 Alpha  occ. eigenvalues --   -0.39578  -0.39364  -0.38290  -0.38233  -0.37698
 Alpha  occ. eigenvalues --   -0.34618  -0.34115  -0.31647  -0.30624  -0.28892
 Alpha  occ. eigenvalues --   -0.28446
 Alpha virt. eigenvalues --   -0.03167  -0.02235   0.01834   0.02266   0.02317
 Alpha virt. eigenvalues --    0.02689   0.08366   0.08929   0.10874   0.11247
 Alpha virt. eigenvalues --    0.11857   0.12594   0.12772   0.13794   0.14138

 Mulliken charges:
               1
     1  C   -0.155078
     2  C    0.220997
     3  C   -0.186463
     4  C   -0.163136
     5  C   -0.162524
     6  C   -0.174132
     7  H    0.200159
     8  N   -0.802007
     9  H    0.174276
    10  H    0.183931
    11  H    0.175559
    12  H    0.176813
    13  H    0.391226
    14  S    1.266036
    15  O   -0.550637
    16  O   -0.558307
    17  C   -0.160839
    18  C   -0.181332
    19  C   -0.136562
    20  C   -0.181322
    21  C   -0.160821
    22  C   -0.152455
    23  H    0.230927
    24  H    0.229023
    25  H    0.230922
    26  H    0.208988
    27  S    1.266057
    28  O   -0.558279
    29  N   -0.802035
    30  O   -0.550639
    31  H    0.391231
    32  C   -0.162542
    33  C   -0.174184
    34  C   -0.154998
    35  C    0.220949
    36  C   -0.186436
    37  C   -0.163106
    38  H    0.175559
    39  H    0.176831
    40  H    0.200132
    41  H    0.174273
    42  H    0.183941
 Sum of Mulliken charges =  -0.00000

 Dipole moment (field-independent basis, Debye):
    X=              0.0015    Y=              1.9817    Z=              0.0009  Tot=              1.9817
 Quadrupole moment (field-independent basis, Debye-Ang):
   XX=           -181.5338   YY=           -139.2759   ZZ=           -163.9336
   XY=              0.0175   XZ=             23.0755   YZ=             -0.0062

  Exact polarizability:     220.636       0.039     303.800     -43.334       0.007     241.114
 Approx polarizability:     264.234       0.047     355.876     -58.888       0.010     295.505

 ******    4 imaginary frequencies (negative Signs) ******

                      1                      2                      3
                      A                      A                      A
 Frequencies --    -65.9132               -51.9943               -34.8247
 Red. masses --      3.7851                 3.9830                 5.7625
 Frc consts  --      0.0097                 0.0063                 0.0041
 IR Inten    --     25.6081                 1.4314                 0.0258

                      4                      5                      6
                      A                      A                      A
 Frequencies --     -7.2753                52.7661                53.6458
 Red. masses --      4.9890                 5.1882                 4.8804
 Frc consts  --      0.0002                 0.0085                 0.0083
 IR Inten    --      3.4924                 0.9911                 1.8798

                      7                      8                      9
                      A                      A                      A
 Frequencies --     86.2058               102.4437               120.0527
 Red. masses --      6.8130                 4.1209                 3.8685
 Frc consts  --      0.0298                 0.0255                 0.0329
 IR Inten    --      0.0015                19.5511                26.2119

                     10                     11                     12
                      A                      A                      A
 Frequencies --    121.6888               139.7610               189.6475
 Red. masses --      2.9021                 7.6439                 2.4027
 Frc consts  --      0.0253                 0.0880                 0.0509
 IR Inten    --     26.7911                 2.5050               135.4074

                     13                     14                     15
                      A                      A                      A
 Frequencies --    203.9965               206.9514               231.1387
 Red. masses --      2.4244                 6.3627                 3.4061
 Frc consts  --      0.0594                 0.1606                 0.1072
 IR Inten    --     15.5886                 1.6428                 9.3143

                     16                     17                     18
                      A                      A                      A
 Frequencies --    245.9272               257.1766               267.1714
 Red. masses --      3.8262                 8.3423                 6.3165
 Frc consts  --      0.1363                 0.3251                 0.2656
 IR Inten    --     44.3977                 2.8235                 8.7508

                     19                     20                     21
                      A                      A                      A
 Frequencies --    280.6184               302.7183               309.9445
 Red. masses --      6.4138                 4.7805                 5.0094
 Frc consts  --      0.2976                 0.2581                 0.2835
 IR Inten    --     11.3565                53.0158                 3.1308

                     22                     23                     24
                      A                      A                      A
 Frequencies --    327.0386               345.7421               356.2282
 Red. masses --      7.5408                 6.4697                 5.8952
 Frc consts  --      0.4752                 0.4557                 0.4408
 IR Inten    --      7.9452                 0.0269                 4.1697

                     25                     26                     27
                      A                      A                      A
 Frequencies --    389.3321               417.8385               422.1961
 Red. masses --      8.1883                 2.9144                 2.9520
 Frc consts  --      0.7313                 0.2998                 0.3100
 IR Inten    --      0.1429                 0.6646                 0.9075

                     28                     29                     30
                      A                      A                      A
 Frequencies --    442.2663               464.2787               495.6814
 Red. masses --      5.0443                 4.2163                 6.8561
 Frc consts  --      0.5813                 0.5355                 0.9925
 IR Inten    --      8.6307                 4.0437                 3.5441

                     31                     32                     33
                      A                      A                      A
 Frequencies --    498.9078               504.4826               536.8758
 Red. masses --      3.5726                 3.9227                 7.1796
 Frc consts  --      0.5239                 0.5882                 1.2193
 IR Inten    --     13.8289                12.1991               113.1112

                     34                     35                     36
                      A                      A                      A
 Frequencies --    575.0109               576.0913               598.8564
 Red. masses --      7.5116                13.1681                 9.5553
 Frc consts  --      1.4633                 2.5749                 2.0190
 IR Inten    --      2.5967               235.9577                58.5460

                     37                     38                     39
                      A                      A                      A
 Frequencies --    617.4411               621.8335               627.2279
 Red. masses --      6.1165                 5.8284                 6.2313
 Frc consts  --      1.3739                 1.3278                 1.4444
 IR Inten    --     54.8480                30.8787                 9.3287

                     40                     41                     42
                      A                      A                      A
 Frequencies --    629.5452               687.2445               687.4739
 Red. masses --      6.8964                 2.4243                 5.9439
 Frc consts  --      1.6104                 0.6746                 1.6551
 IR Inten    --     20.2799                37.8729                12.3740

                     43                     44                     45
                      A                      A                      A
 Frequencies --    695.9208               699.3919               729.2128
 Red. masses --      1.7780                 1.9384                 2.6568
 Frc consts  --      0.5073                 0.5586                 0.8324
 IR Inten    --    115.6134                57.3854                79.2792

                     46                     47                     48
                      A                      A                      A
 Frequencies --    736.6022               783.1540               791.9332
 Red. masses --      2.7633                 2.8258                 2.6001
 Frc consts  --      0.8834                 1.0211                 0.9607
 IR Inten    --      6.7318                46.5242                67.7946

                     49                     50                     51
                      A                      A                      A
 Frequencies --    811.3606               820.6158               832.9975
 Red. masses --      1.9695                 2.6565                 1.3209
 Frc consts  --      0.7639                 1.0540                 0.5400
 IR Inten    --     61.1368                33.6404                 5.4642

                     52                     53                     54
                      A                      A                      A
 Frequencies --    838.9884               879.0918               879.2340
 Red. masses --      1.2837                 4.3387                 4.3628
 Frc consts  --      0.5324                 1.9755                 1.9871
 IR Inten    --      1.1103                26.1996                22.4607

                     55                     56                     57
                      A                      A                      A
 Frequencies --    912.7409               922.1296               922.9450
 Red. masses --      1.4421                 1.4631                 1.4611
 Frc consts  --      0.7079                 0.7330                 0.7333
 IR Inten    --      0.5446                 5.0788                15.9934

                     58                     59                     60
                      A                      A                      A
 Frequencies --    971.0891               972.2049               975.4096
 Red. masses --      1.3466                 1.3762                 1.3712
 Frc consts  --      0.7482                 0.7664                 0.7687
 IR Inten    --      0.5396                 1.2500                 0.8929

                     61                     62                     63
                      A                      A                      A
 Frequencies --    999.5965              1004.5328              1008.5424
 Red. masses --      1.3179                 1.3086                 6.2625
 Frc consts  --      0.7759                 0.7780                 3.7531
 IR Inten    --      0.5625                 0.0044                 0.0798

                     64                     65                     66
                      A                      A                      A
 Frequencies --   1020.6232              1020.7929              1020.9743
 Red. masses --      3.9561                 5.3849                 1.4691
 Frc consts  --      2.4280                 3.3060                 0.9023
 IR Inten    --      1.9328                 1.3821                 0.8316

                     67                     68                     69
                      A                      A                      A
 Frequencies --   1060.7165              1061.8744              1099.6528
 Red. masses --      1.9874                 1.9911                 8.6730
 Frc consts  --      1.3174                 1.3228                 6.1792
 IR Inten    --      2.9784                 2.1748                 7.2938

                     70                     71                     72
                      A                      A                      A
 Frequencies --   1110.6922              1112.5711              1113.5617
 Red. masses --      2.5959                 1.4546                 1.9013
 Frc consts  --      1.8868                 1.0609                 1.3891
 IR Inten    --    262.1803                 5.6903                86.3429

                     73                     74                     75
                      A                      A                      A
 Frequencies --   1115.4892              1146.2316              1175.4222
 Red. masses --      1.7770                 2.2630                 1.1630
 Frc consts  --      1.3028                 1.7518                 0.9467
 IR Inten    --     17.3239               258.5595                 0.5050

                     76                     77                     78
                      A                      A                      A
 Frequencies --   1176.8550              1178.1587              1190.0754
 Red. masses --      4.2569                 1.1102                 1.1441
 Frc consts  --      3.4737                 0.9080                 0.9547
 IR Inten    --     11.2279                 0.0726                 4.6264

                     79                     80                     81
                      A                      A                      A
 Frequencies --   1193.1677              1195.6445              1250.1613
 Red. masses --      1.1113                 1.1092                 1.5123
 Frc consts  --      0.9322                 0.9342                 1.3926
 IR Inten    --      0.4213                 0.4962                27.7172

                     82                     83                     84
                      A                      A                      A
 Frequencies --   1250.8099              1311.4119              1324.5800
 Red. masses --      1.5045                 3.0974                 3.3636
 Frc consts  --      1.3869                 3.1385                 3.4771
 IR Inten    --     13.4323                 9.7132                96.4704

                     85                     86                     87
                      A                      A                      A
 Frequencies --   1326.6279              1339.9985              1342.2495
 Red. masses --      5.9568                 2.3943                 3.3215
 Frc consts  --      6.1767                 2.5330                 3.5258
 IR Inten    --     40.1866                22.7241                93.0490

                     88                     89                     90
                      A                      A                      A
 Frequencies --   1347.0143              1351.6692              1353.1410
 Red. masses --      2.9355                 2.1242                 1.9383
 Frc consts  --      3.1382                 2.2866                 2.0911
 IR Inten    --     16.7802                 2.5485                 7.0390

                     91                     92                     93
                      A                      A                      A
 Frequencies --   1393.6196              1393.6980              1452.4440
 Red. masses --      2.1191                 2.1200                 3.0979
 Frc consts  --      2.4249                 2.4262                 3.8505
 IR Inten    --    117.6846               119.6061                58.1047

                     94                     95                     96
                      A                      A                      A
 Frequencies --   1513.0422              1513.1149              1516.8482
 Red. masses --      2.3932                 2.4076                 2.2699
 Frc consts  --      3.2280                 3.2477                 3.0771
 IR Inten    --      2.6342                10.2794                 8.9730

                     97                     98                     99
                      A                      A                      A
 Frequencies --   1557.5744              1558.0260              1647.9156
 Red. masses --      2.8310                 2.8112                 6.3513
 Frc consts  --      4.0465                 4.0206                10.1622
 IR Inten    --     77.6492                72.8720                 1.9239

                    100                    101                    102
                      A                      A                      A
 Frequencies --   1658.8093              1681.1635              1681.2208
 Red. masses --      5.9671                 6.3498                 6.3514
 Frc consts  --      9.6741                10.5738                10.5771
 IR Inten    --     12.9217                 8.6294                 0.7270

                    103                    104                    105
                      A                      A                      A
 Frequencies --   1689.7583              1690.0111              3259.0143
 Red. masses --      6.3594                 6.3730                 1.0919
 Frc consts  --     10.6984                10.7244                 6.8331
 IR Inten    --     22.4780                37.3411                 3.7724

                    106                    107                    108
                      A                      A                      A
 Frequencies --   3272.7680              3272.9733              3275.4231
 Red. masses --      1.0863                 1.0863                 1.0886
 Frc consts  --      6.8555                 6.8565                 6.8812
 IR Inten    --      0.0753                 0.0209                 1.5430

                    109                    110                    111
                      A                      A                      A
 Frequencies --   3280.2537              3282.5182              3282.8723
 Red. masses --      1.0917                 1.0895                 1.0897
 Frc consts  --      6.9209                 6.9167                 6.9194
 IR Inten    --      5.2305                 9.8047                 2.6303

                    112                    113                    114
                      A                      A                      A
 Frequencies --   3286.6402              3287.1253              3292.7713
 Red. masses --      1.0916                 1.0915                 1.0965
 Frc consts  --      6.9476                 6.9489                 7.0045
 IR Inten    --      7.3956                13.1307                 1.8485

                    115                    116                    117
                      A                      A                      A
 Frequencies --   3294.1068              3294.4439              3300.2512
 Red. masses --      1.0958                 1.0959                 1.0980
 Frc consts  --      7.0058                 7.0076                 7.0462
 IR Inten    --     12.4230                 6.9657                 2.7298

                    118                    119                    120
                      A                      A                      A
 Frequencies --   3300.9318              3735.2737              3736.0172
 Red. masses --      1.0977                 1.0769                 1.0769
 Frc consts  --      7.0471                 8.8523                 8.8559
 IR Inten    --     11.5915                79.0370                62.9268

 - Thermochemistry -
 -------------------
 Temperature   298.150 Kelvin.  Pressure   1.00000 Atm.
 Atom     1 has atomic number  6 and mass  12.00000

 Molecular mass:   388.05515 amu.
 Principal axes and moments of inertia in atomic units:
                           1         2         3
     Eigenvalues --  8191.624149859.12879**********
           X            0.99953   0.00006   0.03059
           Y           -0.00006   1.00000  -0.00002
           Z           -0.03059   0.00001   0.99953
 This molecule is an asymmetric top.
 Rotational symmetry number  1.
 Warning -- assumption of classical behavior for rotation
           may cause significant error
 Rotational temperatures (Kelvin)      0.01057     0.00879     0.00770
 Rotational constants (GHZ):           0.22032     0.18305     0.16039
    4 imaginary frequencies ignored.
 Zero-point vibrational energy     836021.9 (Joules/Mol)
                                  199.81402 (Kcal/Mol)
 Warning -- explicit consideration of  33 degrees of freedom as
           vibrations may cause significant error
 Vibrational temperatures:     75.92    77.18   124.03   147.39   172.73
          (Kelvin)            175.08   201.08   272.86   293.51   297.76
                              332.56   353.83   370.02   384.40   403.75
                              435.54   445.94   470.54   497.45   512.53
                              560.16   601.18   607.45   636.32   667.99
                              713.18   717.82   725.84   772.44   827.31
                              828.87   861.62   888.36   894.68   902.44
                              905.78   988.79   989.12  1001.27  1006.27
                             1049.17  1059.81  1126.78  1139.42  1167.37
                             1180.68  1198.50  1207.12  1264.82  1265.02
                             1313.23  1326.74  1327.91  1397.18  1398.79
                             1403.40  1438.20  1445.30  1451.07  1468.45
                             1468.69  1468.95  1526.13  1527.80  1582.16
                             1598.04  1600.74  1602.17  1604.94  1649.17
                             1691.17  1693.23  1695.11  1712.25  1716.70
                             1720.27  1798.70  1799.64  1886.83  1905.78
                             1908.72  1927.96  1931.20  1938.05  1944.75
                             1946.87  2005.11  2005.22  2089.74  2176.93
                             2177.03  2182.41  2241.00  2241.65  2370.98
                             2386.66  2418.82  2418.90  2431.19  2431.55
                             4688.99  4708.78  4709.08  4712.60  4719.55
                             4722.81  4723.32  4728.74  4729.44  4737.56
                             4739.48  4739.97  4748.33  4749.30  5374.23
                             5375.30

 Zero-point correction=                           0.318424 (Hartree/Particle)
 Thermal correction to Energy=                    0.338032
 Thermal correction to Enthalpy=                  0.338976
 Thermal correction to Gibbs Free Energy=         0.271830
 Sum of electronic and zero-point Energies=          -1901.357140
 Sum of electronic and thermal Energies=             -1901.337532
 Sum of electronic and thermal Enthalpies=           -1901.336588
 Sum of electronic and thermal Free Energies=        -1901.403734

                     E (Thermal)             CV                S
                      KCal/Mol        Cal/Mol-Kelvin    Cal/Mol-Kelvin
 Total                  212.118             81.439            141.322
 Electronic               0.000              0.000              0.000
 Translational            0.889              2.981             43.760
 Rotational               0.889              2.981             35.162
 Vibrational            210.341             75.478             62.400
 Vibration     1          0.596              1.977              4.711
 Vibration     2          0.596              1.976              4.678
 Vibration     3          0.601              1.959              3.744
 Vibration     4          0.605              1.947              3.407
 Vibration     5          0.609              1.933              3.100
 Vibration     6          0.609              1.931              3.073
 Vibration     7          0.615              1.914              2.807
 Vibration     8          0.633              1.854              2.231
 Vibration     9          0.640              1.834              2.097
 Vibration    10          0.641              1.830              2.070
 Vibration    11          0.653              1.793              1.870
 Vibration    12          0.660              1.770              1.760
 Vibration    13          0.667              1.751              1.681
 Vibration    14          0.672              1.733              1.614
 Vibration    15          0.680              1.709              1.530
 Vibration    16          0.694              1.669              1.402
 Vibration    17          0.699              1.655              1.363
 Vibration    18          0.711              1.621              1.275
 Vibration    19          0.724              1.584              1.186
 Vibration    20          0.732              1.562              1.139
 Vibration    21          0.757              1.493              1.003
 Vibration    22          0.781              1.431              0.899
 Vibration    23          0.785              1.422              0.885
 Vibration    24          0.802              1.378              0.820
 Vibration    25          0.822              1.329              0.754
 Vibration    26          0.851              1.260              0.669
 Vibration    27          0.854              1.252              0.661
 Vibration    28          0.860              1.240              0.647
 Vibration    29          0.892              1.168              0.572
 Vibration    30          0.931              1.085              0.495
 Vibration    31          0.933              1.083              0.493
 Vibration    32          0.957              1.034              0.452
 Vibration    33          0.977              0.995              0.421

 Normal termination of Gaussian 16 at Sat Dec  9 20:08:40 2023.
