 Gaussian 16, Revision C.01,
 Gaussian 16:  ES64L-G16RevC.01  3-Jul-2019

 -----------------------------------------------------------
 # m062x 6-31g(d) scrf=(iefpcm,solvent=benzene) freq=noraman
 -----------------------------------------------------------

 ------------
 Structure283
 ------------
 Symbolic Z-matrix:
 Charge =  0 Multiplicity = 1

                         Standard orientation:
 ---------------------------------------------------------------------
 Center     Atomic      Atomic             Coordinates (Angstroms)
 Number     Number       Type             X           Y           Z
 ---------------------------------------------------------------------
      1          6           0        2.994081   -0.192359   -0.224542
      2          8           0        2.287830   -1.142607   -0.991094
      3          7           0        0.795443   -0.444901    0.476444
      4          6           0        1.831092    0.598259    0.404812
      5          6           0        3.833035   -0.963619    0.819964
      6          6           0        3.922462    0.568738   -1.188950
      7          1           0        2.146081    0.884892    1.410806
      8          6           0        1.348351    1.908993   -0.318778
      9          6           0        1.029950   -1.372305   -0.479460
     10          8           0        0.345106   -2.310998   -0.881583
     11          6           0       -0.123348   -0.482810    1.478351
     12          8           0       -0.006851    0.223530    2.483342
     13          6           0       -1.390575   -1.359547    1.387440
     14          1           0       -1.155205   -2.365679    1.045179
     15          1           0       -1.792353   -1.497784    2.392145
     16          6           0       -4.373623    0.521376   -1.088710
     17          6           0       -3.719302   -0.621692   -1.543526
     18          6           0       -2.761854   -1.234797   -0.739678
     19          6           0       -2.460401   -0.703558    0.517593
     20          6           0       -3.121193    0.444826    0.966927
     21          6           0       -4.078778    1.057608    0.163163
     22          1           0       -5.116488    0.996566   -1.713193
     23          1           0       -3.950929   -1.031603   -2.516159
     24          1           0       -2.252261   -2.118100   -1.099731
     25          1           0       -2.885594    0.864563    1.935454
     26          1           0       -4.588716    1.945298    0.508843
     27          6           0        0.574205    1.686994   -1.638713
     28          6           0        0.515081    2.805135    0.617548
     29          1           0        2.235719    2.497518   -0.555746
     30          1           0       -0.388776    1.203267   -1.465290
     31          1           0        0.371391    2.633585   -2.140800
     32          1           0        1.127082    1.064625   -2.341738
     33          1           0        0.317903    3.777475    0.164776
     34          1           0       -0.451655    2.358841    0.853702
     35          1           0        1.030071    2.986948    1.561787
     36          1           0        4.427238   -0.281523    1.428122
     37          1           0        3.211685   -1.548872    1.498546
     38          1           0        4.519224   -1.660271    0.337069
     39          1           0        4.445408    1.377497   -0.679084
     40          1           0        4.674836   -0.096777   -1.613329
     41          1           0        3.383467    0.996974   -2.032432
 ---------------------------------------------------------------------

 SCF Done:  E(RM062X) =  -902.435146101     A.U. after   13 cycles

 The electronic state is 1-A.
 Alpha  occ. eigenvalues --  -19.68832 -19.63901 -19.63501 -14.83147 -10.72561
 Alpha  occ. eigenvalues --  -10.68258 -10.63317 -10.60882 -10.56709 -10.56448
 Alpha  occ. eigenvalues --  -10.56119 -10.55064 -10.55050 -10.54974 -10.54887
 Alpha  occ. eigenvalues --  -10.54812 -10.54811 -10.54686 -10.53781 -10.53386
 Alpha  occ. eigenvalues --   -1.25719  -1.17769  -1.15055  -1.07566  -0.96117
 Alpha  occ. eigenvalues --   -0.92792  -0.88924  -0.87962  -0.84015  -0.82143
 Alpha  occ. eigenvalues --   -0.79875  -0.78772  -0.77839  -0.76837  -0.71133
 Alpha  occ. eigenvalues --   -0.68696  -0.67602  -0.66412  -0.63070  -0.59853
 Alpha  occ. eigenvalues --   -0.58910  -0.57733  -0.55688  -0.55342  -0.53327
 Alpha  occ. eigenvalues --   -0.53043  -0.52520  -0.51690  -0.50888  -0.50339
 Alpha  occ. eigenvalues --   -0.49478  -0.48663  -0.48222  -0.47679  -0.46837
 Alpha  occ. eigenvalues --   -0.46331  -0.46061  -0.45537  -0.45135  -0.44518
 Alpha  occ. eigenvalues --   -0.43874  -0.42963  -0.41834  -0.41151  -0.40201
 Alpha  occ. eigenvalues --   -0.39649  -0.39562  -0.38847  -0.36736  -0.35918
 Alpha  occ. eigenvalues --   -0.34441  -0.33782  -0.30315  -0.29498
 Alpha virt. eigenvalues --    0.00865   0.03148   0.03991   0.09040   0.10992
 Alpha virt. eigenvalues --    0.13596   0.14528   0.14978   0.16061   0.16130
 Alpha virt. eigenvalues --    0.16770   0.18004   0.18123   0.18422   0.19065

 Mulliken charges:
               1
     1  C    0.237578
     2  O   -0.511698
     3  N   -0.526130
     4  C   -0.033128
     5  C   -0.484282
     6  C   -0.495257
     7  H    0.203417
     8  C   -0.122233
     9  C    0.823969
    10  O   -0.521277
    11  C    0.601887
    12  O   -0.503633
    13  C   -0.429656
    14  H    0.209437
    15  H    0.205031
    16  C   -0.172037
    17  C   -0.169052
    18  C   -0.198257
    19  C    0.073995
    20  C   -0.193877
    21  C   -0.168131
    22  H    0.169238
    23  H    0.174754
    24  H    0.191589
    25  H    0.179233
    26  H    0.173785
    27  C   -0.504055
    28  C   -0.479098
    29  H    0.165504
    30  H    0.172147
    31  H    0.175245
    32  H    0.170549
    33  H    0.164463
    34  H    0.167946
    35  H    0.166544
    36  H    0.175094
    37  H    0.175597
    38  H    0.187868
    39  H    0.176356
    40  H    0.188307
    41  H    0.182268
 Sum of Mulliken charges =  -0.00000

 Dipole moment (field-independent basis, Debye):
    X=              2.2128    Y=              2.7342    Z=             -0.4158  Tot=              3.5419
 Quadrupole moment (field-independent basis, Debye-Ang):
   XX=           -103.0631   YY=           -120.2404   ZZ=           -124.0756
   XY=              1.1672   XZ=              3.6185   YZ=             -6.7852

  Exact polarizability:     206.366     -16.237     178.573      15.211      14.318     182.979
 Approx polarizability:     200.762     -16.340     207.101      17.241      27.948     219.877

 ******    2 imaginary frequencies (negative Signs) ******

                      1                      2                      3
                      A                      A                      A
 Frequencies --    -94.3007               -37.9714                18.3829
 Red. masses --      1.2506                 2.7192                 4.4816
 Frc consts  --      0.0066                 0.0023                 0.0009
 IR Inten    --      0.1435                 1.5437                 0.3340

                      4                      5                      6
                      A                      A                      A
 Frequencies --     46.7886                53.8575                76.6753
 Red. masses --      3.2690                 1.9072                 1.8165
 Frc consts  --      0.0042                 0.0033                 0.0063
 IR Inten    --      0.3173                 0.0466                 0.3460

                      7                      8                      9
                      A                      A                      A
 Frequencies --     92.6327               103.8974               115.7625
 Red. masses --      2.1315                 2.3654                 4.8432
 Frc consts  --      0.0108                 0.0150                 0.0382
 IR Inten    --      0.2535                 0.4862                 5.2488

                     10                     11                     12
                      A                      A                      A
 Frequencies --    142.5638               165.2687               173.0247
 Red. masses --      1.3618                 3.4565                 2.6902
 Frc consts  --      0.0163                 0.0556                 0.0475
 IR Inten    --      1.8477                 1.7108                 1.8132

                     13                     14                     15
                      A                      A                      A
 Frequencies --    178.5051               186.3654               235.0325
 Red. masses --      2.8735                 1.8549                 3.4570
 Frc consts  --      0.0539                 0.0380                 0.1125
 IR Inten    --      1.6140                 1.4957                 3.8799

                     16                     17                     18
                      A                      A                      A
 Frequencies --    276.6421               280.8107               300.0554
 Red. masses --      3.5359                 3.4222                 2.8098
 Frc consts  --      0.1594                 0.1590                 0.1491
 IR Inten    --      0.8245                 0.1015                 0.0792

                     19                     20                     21
                      A                      A                      A
 Frequencies --    314.5446               346.3803               368.4168
 Red. masses --      4.0683                 2.3944                 3.2025
 Frc consts  --      0.2372                 0.1693                 0.2561
 IR Inten    --      3.2303                 1.1055                 6.2171

                     22                     23                     24
                      A                      A                      A
 Frequencies --    400.4633               407.2938               412.1027
 Red. masses --      2.6641                 2.6356                 2.8391
 Frc consts  --      0.2517                 0.2576                 0.2841
 IR Inten    --      0.5751                 2.1285                 0.1742

                     25                     26                     27
                      A                      A                      A
 Frequencies --    454.5892               481.6574               521.2467
 Red. masses --      4.7150                 3.5032                 3.9329
 Frc consts  --      0.5741                 0.4788                 0.6296
 IR Inten    --      1.6452                 1.5667                12.2668

                     28                     29                     30
                      A                      A                      A
 Frequencies --    524.9690               556.8309               607.3453
 Red. masses --      3.4081                 3.3708                 3.7192
 Frc consts  --      0.5534                 0.6158                 0.8083
 IR Inten    --      2.6713                 3.7307                11.5958

                     31                     32                     33
                      A                      A                      A
 Frequencies --    628.2787               642.4832               677.0734
 Red. masses --      6.0282                 4.3915                 5.2891
 Frc consts  --      1.4020                 1.0680                 1.4286
 IR Inten    --      1.4955                41.2226                 8.8984

                     34                     35                     36
                      A                      A                      A
 Frequencies --    703.7090               723.9429               766.7366
 Red. masses --      1.6078                 3.1307                 3.3408
 Frc consts  --      0.4691                 0.9667                 1.1572
 IR Inten    --     46.1157                38.6920                 0.7622

                     37                     38                     39
                      A                      A                      A
 Frequencies --    790.0555               808.0775               824.0488
 Red. masses --      7.5733                 3.7941                 3.2918
 Frc consts  --      2.7851                 1.4597                 1.3170
 IR Inten    --     22.4987                13.5896                 4.9589

                     40                     41                     42
                      A                      A                      A
 Frequencies --    854.8501               859.9906               893.5479
 Red. masses --      1.2653                 3.5705                 2.1944
 Frc consts  --      0.5448                 1.5559                 1.0323
 IR Inten    --      0.8862                 8.1885                 1.0171

                     43                     44                     45
                      A                      A                      A
 Frequencies --    917.4230               918.6808               929.1469
 Red. masses --      1.6443                 1.5085                 1.6938
 Frc consts  --      0.8154                 0.7501                 0.8616
 IR Inten    --      0.5220                 1.4603                 1.6342

                     46                     47                     48
                      A                      A                      A
 Frequencies --    934.9475               941.2506               954.3118
 Red. masses --      1.5707                 2.0338                 1.5081
 Frc consts  --      0.8090                 1.0616                 0.8092
 IR Inten    --      1.0527                 5.1492                 0.5480

                     49                     50                     51
                      A                      A                      A
 Frequencies --    980.7181               991.4178              1005.0587
 Red. masses --      1.3828                 1.6660                 1.3753
 Frc consts  --      0.7836                 0.9648                 0.8185
 IR Inten    --      0.6268                15.4433                 4.3601

                     52                     53                     54
                      A                      A                      A
 Frequencies --   1009.8140              1018.7697              1023.6566
 Red. masses --      1.9405                 5.0219                 2.2649
 Frc consts  --      1.1658                 3.0709                 1.3983
 IR Inten    --     50.0861                 1.5382                29.4260

                     55                     56                     57
                      A                      A                      A
 Frequencies --   1041.8734              1061.2642              1089.2868
 Red. masses --      2.3903                 2.1238                 1.8229
 Frc consts  --      1.5287                 1.4093                 1.2743
 IR Inten    --     22.9597                 5.8624                52.7551

                     58                     59                     60
                      A                      A                      A
 Frequencies --   1112.6336              1121.2107              1144.4326
 Red. masses --      1.4842                 2.2840                 2.4296
 Frc consts  --      1.0825                 1.6917                 1.8749
 IR Inten    --     12.4478                 4.7047               206.6994

                     61                     62                     63
                      A                      A                      A
 Frequencies --   1176.8022              1189.2566              1197.9515
 Red. masses --      1.1423                 1.3894                 1.1168
 Frc consts  --      0.9321                 1.1578                 0.9443
 IR Inten    --      6.4888                43.6226                 1.0040

                     64                     65                     66
                      A                      A                      A
 Frequencies --   1199.7820              1213.5356              1220.7222
 Red. masses --      1.9467                 2.4204                 2.6906
 Frc consts  --      1.6510                 2.1001                 2.3623
 IR Inten    --      8.7557                53.3919                 0.0864

                     67                     68                     69
                      A                      A                      A
 Frequencies --   1245.6662              1279.0869              1314.2252
 Red. masses --      2.3554                 4.1753                 2.5904
 Frc consts  --      2.1534                 4.0247                 2.6361
 IR Inten    --     27.1614                37.8855                57.2563

                     70                     71                     72
                      A                      A                      A
 Frequencies --   1324.1436              1326.2405              1343.5287
 Red. masses --      1.5693                 1.5253                 4.3011
 Frc consts  --      1.6212                 1.5807                 4.5743
 IR Inten    --     17.0623                12.6733                 4.3244

                     73                     74                     75
                      A                      A                      A
 Frequencies --   1349.9874              1354.6631              1388.4445
 Red. masses --      1.5844                 1.5093                 1.6936
 Frc consts  --      1.7013                 1.6318                 1.9236
 IR Inten    --     13.9805                13.5848                 6.1034

                     76                     77                     78
                      A                      A                      A
 Frequencies --   1393.3055              1419.1590              1423.2186
 Red. masses --      1.8816                 1.3060                 1.2743
 Frc consts  --      2.1521                 1.5498                 1.5208
 IR Inten    --     33.3556                 1.6138                18.6667

                     79                     80                     81
                      A                      A                      A
 Frequencies --   1438.7418              1444.2943              1499.5481
 Red. masses --      1.2426                 1.2358                 1.0589
 Frc consts  --      1.5154                 1.5188                 1.4028
 IR Inten    --      5.4463                 5.5830                 6.7178

                     82                     83                     84
                      A                      A                      A
 Frequencies --   1503.5974              1505.8219              1508.4565
 Red. masses --      1.0924                 2.0607                 1.0489
 Frc consts  --      1.4551                 2.7530                 1.4062
 IR Inten    --     23.7908                 9.7431                 3.9630

                     85                     86                     87
                      A                      A                      A
 Frequencies --   1509.1694              1515.8101              1519.3125
 Red. masses --      1.2290                 1.0559                 1.0948
 Frc consts  --      1.6492                 1.4294                 1.4889
 IR Inten    --     34.2604                 8.0191                21.7062

                     88                     89                     90
                      A                      A                      A
 Frequencies --   1524.3910              1528.3382              1529.4968
 Red. masses --      2.3004                 1.1839                 1.0707
 Frc consts  --      3.1495                 1.6294                 1.4758
 IR Inten    --    520.7085                68.8894                 8.0102

                     91                     92                     93
                      A                      A                      A
 Frequencies --   1535.7055              1544.2435              1674.3577
 Red. masses --      1.1286                 2.4264                 6.2405
 Frc consts  --      1.5682                 3.4091                10.3078
 IR Inten    --     29.7476                20.3875                 7.2664

                     94                     95                     96
                      A                      A                      A
 Frequencies --   1687.8585              1725.0695              1786.4192
 Red. masses --      6.2766                10.5430                12.1385
 Frc consts  --     10.5353                18.4854                22.8235
 IR Inten    --     13.9471               417.0608               559.1366

                     97                     98                     99
                      A                      A                      A
 Frequencies --   3119.4570              3122.3220              3126.6840
 Red. masses --      1.0366                 1.0382                 1.0370
 Frc consts  --      5.9432                 5.9634                 5.9732
 IR Inten    --     23.0132                 9.8325                10.6347

                    100                    101                    102
                      A                      A                      A
 Frequencies --   3135.9992              3144.2934              3147.5756
 Red. masses --      1.0392                 1.0842                 1.0851
 Frc consts  --      6.0216                 6.3157                 6.3342
 IR Inten    --      5.7073                 5.4486                17.3978

                    103                    104                    105
                      A                      A                      A
 Frequencies --   3156.6715              3191.5911              3193.5030
 Red. masses --      1.0677                 1.1024                 1.1022
 Frc consts  --      6.2683                 6.6160                 6.6228
 IR Inten    --      7.4095                 5.9859                28.8579

                    106                    107                    108
                      A                      A                      A
 Frequencies --   3198.9795              3200.9144              3201.7851
 Red. masses --      1.1018                 1.1026                 1.0978
 Frc consts  --      6.6433                 6.6563                 6.6307
 IR Inten    --     34.7734                19.7837                 0.1847

                    109                    110                    111
                      A                      A                      A
 Frequencies --   3201.9111              3204.7665              3209.2976
 Red. masses --      1.1017                 1.1026                 1.1022
 Frc consts  --      6.6550                 6.6721                 6.6886
 IR Inten    --     36.2889                 3.1136                19.7913

                    112                    113                    114
                      A                      A                      A
 Frequencies --   3220.0621              3267.6331              3272.9977
 Red. masses --      1.1019                 1.0862                 1.0885
 Frc consts  --      6.7315                 6.8332                 6.8705
 IR Inten    --     13.9766                 0.9287                 1.5408

                    115                    116                    117
                      A                      A                      A
 Frequencies --   3280.3927              3287.5829              3295.0526
 Red. masses --      1.0915                 1.0951                 1.0984
 Frc consts  --      6.9200                 6.9738                 7.0267
 IR Inten    --     10.0541                15.9659                16.3863

 - Thermochemistry -
 -------------------
 Temperature   298.150 Kelvin.  Pressure   1.00000 Atm.
 Atom     1 has atomic number  6 and mass  12.00000

 Molecular mass:   275.15214 amu.
 Principal axes and moments of inertia in atomic units:
                           1         2         3
     Eigenvalues --  2972.890767515.461777902.91647
           X            0.99999   0.00478   0.00185
           Y           -0.00461   0.99649  -0.08354
           Z           -0.00224   0.08353   0.99650
 This molecule is an asymmetric top.
 Rotational symmetry number  1.
 Warning -- assumption of classical behavior for rotation
           may cause significant error
 Rotational temperatures (Kelvin)      0.02913     0.01152     0.01096
 Rotational constants (GHZ):           0.60707     0.24014     0.22836
    2 imaginary frequencies ignored.
 Zero-point vibrational energy     919513.3 (Joules/Mol)
                                  219.76895 (Kcal/Mol)
 Warning -- explicit consideration of  28 degrees of freedom as
           vibrations may cause significant error
 Vibrational temperatures:     26.45    67.32    77.49   110.32   133.28
          (Kelvin)            149.49   166.56   205.12   237.78   248.94
                              256.83   268.14   338.16   398.03   404.02
                              431.71   452.56   498.36   530.07   576.18
                              586.00   592.92   654.05   693.00   749.96
                              755.31   801.16   873.83   903.95   924.39
                              974.16  1012.48  1041.59  1103.16  1136.71
                             1162.64  1185.62  1229.94  1237.33  1285.62
                             1319.97  1321.78  1336.84  1345.18  1354.25
                             1373.04  1411.03  1426.43  1446.06  1452.90
                             1465.78  1472.81  1499.02  1526.92  1567.24
                             1600.83  1613.17  1646.58  1693.16  1711.07
                             1723.59  1726.22  1746.01  1756.35  1792.24
                             1840.32  1890.88  1905.15  1908.16  1933.04
                             1942.33  1949.06  1997.66  2004.66  2041.85
                             2047.69  2070.03  2078.02  2157.52  2163.34
                             2166.54  2170.33  2171.36  2180.91  2185.95
                             2193.26  2198.94  2200.60  2209.54  2221.82
                             2409.03  2428.45  2481.99  2570.26  4488.20
                             4492.33  4498.60  4512.00  4523.94  4528.66
                             4541.75  4591.99  4594.74  4602.62  4605.40
                             4606.65  4606.84  4610.94  4617.46  4632.95
                             4701.40  4709.11  4719.75  4730.10  4740.85

 Zero-point correction=                           0.350224 (Hartree/Particle)
 Thermal correction to Energy=                    0.368807
 Thermal correction to Enthalpy=                  0.369751
 Thermal correction to Gibbs Free Energy=         0.302803
 Sum of electronic and zero-point Energies=           -902.084922
 Sum of electronic and thermal Energies=              -902.066340
 Sum of electronic and thermal Enthalpies=            -902.065395
 Sum of electronic and thermal Free Energies=         -902.132343

                     E (Thermal)             CV                S
                      KCal/Mol        Cal/Mol-Kelvin    Cal/Mol-Kelvin
 Total                  231.430             71.581            140.903
 Electronic               0.000              0.000              0.000
 Translational            0.889              2.981             42.735
 Rotational               0.889              2.981             33.534
 Vibrational            229.652             65.620             64.634
 Vibration     1          0.593              1.986              6.802
 Vibration     2          0.595              1.979              4.949
 Vibration     3          0.596              1.976              4.670
 Vibration     4          0.599              1.965              3.974
 Vibration     5          0.602              1.954              3.604
 Vibration     6          0.605              1.946              3.380
 Vibration     7          0.608              1.936              3.170
 Vibration     8          0.616              1.911              2.769
 Vibration     9          0.624              1.885              2.489
 Vibration    10          0.627              1.876              2.402
 Vibration    11          0.629              1.869              2.344
 Vibration    12          0.632              1.859              2.264
 Vibration    13          0.655              1.787              1.840
 Vibration    14          0.678              1.717              1.554
 Vibration    15          0.680              1.709              1.529
 Vibration    16          0.693              1.674              1.417
 Vibration    17          0.702              1.646              1.338
 Vibration    18          0.724              1.583              1.183
 Vibration    19          0.741              1.537              1.086
 Vibration    20          0.766              1.469              0.961
 Vibration    21          0.772              1.454              0.936
 Vibration    22          0.776              1.444              0.919
 Vibration    23          0.813              1.351              0.782
 Vibration    24          0.838              1.291              0.706
 Vibration    25          0.876              1.203              0.607
 Vibration    26          0.880              1.195              0.599
 Vibration    27          0.912              1.125              0.530
 Vibration    28          0.966              1.016              0.437

 Normal termination of Gaussian 16 at Sat Dec  9 20:11:48 2023.
