 Gaussian 16, Revision C.01,
 Gaussian 16:  ES64L-G16RevC.01  3-Jul-2019

 -----------------------------------------------------------
 # m062x 6-31g(d) scrf=(iefpcm,solvent=benzene) freq=noraman
 -----------------------------------------------------------

 ----------
 Structure1
 ----------
 Symbolic Z-matrix:
 Charge =  0 Multiplicity = 1

                         Standard orientation:
 ---------------------------------------------------------------------
 Center     Atomic      Atomic             Coordinates (Angstroms)
 Number     Number       Type             X           Y           Z
 ---------------------------------------------------------------------
      1          6           0       -2.556934   -1.529967   -0.068129
      2          6           0       -3.557075   -0.590376    0.212474
      3          6           0       -3.245116    0.773958    0.163078
      4          6           0       -1.954943    1.204597   -0.171342
      5          6           0       -0.969128    0.251220   -0.448929
      6          6           0       -1.258951   -1.121295   -0.382355
      7          1           0       -2.789915   -2.585833   -0.026044
      8          6           0       -4.973431   -1.045109    0.567011
      9          1           0       -4.014996    1.502830    0.382845
     10          6           0       -1.612249    2.693463   -0.245516
     11          1           0        0.013371    0.598821   -0.741329
     12          7           0       -0.315647   -2.131314   -0.657004
     13          9           0       -2.707348    3.455337   -0.266189
     14          9           0       -0.902939    2.955749   -1.343909
     15          9           0       -0.890158    3.027705    0.823244
     16          9           0       -5.072684   -1.145620    1.891405
     17          9           0       -5.881338   -0.168019    0.136397
     18          9           0       -5.251638   -2.233466    0.028323
     19          1           0       -0.701825   -2.972473   -1.060156
     20          6           0        1.045030   -2.113869   -0.622277
     21         16           0        1.832161   -3.329825   -1.438146
     22          7           0        1.629500   -1.127307    0.120660
     23          1           0        1.023694   -0.446371    0.552967
     24          6           0        5.371938   -1.381604    1.190822
     25          6           0        3.870907   -1.727909    1.164816
     26          6           0        3.065055   -0.819199    0.200248
     27          6           0        3.323591    0.693331    0.474042
     28          6           0        4.841915    1.003696    0.475685
     29          6           0        5.620393    0.111204    1.461651
     30          1           0        5.818966   -1.656315    0.233245
     31          1           0        5.880206   -1.988282    1.942305
     32          1           0        3.465192   -1.632320    2.173312
     33          1           0        3.753249   -2.776714    0.888477
     34          1           0        3.461641   -0.992641   -0.801314
     35          7           0        2.484216    1.591859   -0.341836
     36          1           0        2.993447    0.838007    1.506046
     37          1           0        5.246244    0.875283   -0.528528
     38          1           0        5.012467    2.045856    0.742752
     39          1           0        5.322761    0.350092    2.484389
     40          1           0        6.688014    0.328088    1.399195
     41          6           0        2.794141    1.580711   -1.774511
     42          6           0        2.435741    2.964559    0.165982
     43          1           0        3.788713    1.978758   -1.982185
     44          1           0        2.740300    0.572553   -2.187844
     45          1           0        2.073650    2.184470   -2.329459
     46          1           0        3.393497    3.477303    0.065029
     47          1           0        1.689995    3.549906   -0.375132
     48          1           0        2.149917    2.983858    1.219110
 ---------------------------------------------------------------------

 SCF Done:  E(RM062X) =  -1821.40961920     A.U. after   13 cycles

 The electronic state is 1-A.
 Alpha  occ. eigenvalues --  -89.86553 -25.29953 -25.29857 -25.29838 -25.29740
 Alpha  occ. eigenvalues --  -25.29540 -25.29262 -14.81670 -14.80643 -14.76240
 Alpha  occ. eigenvalues --  -10.81571 -10.81449 -10.67947 -10.63342 -10.60095
 Alpha  occ. eigenvalues --  -10.60077 -10.59602 -10.58958 -10.58785 -10.58765
 Alpha  occ. eigenvalues --  -10.58750 -10.56431 -10.56366 -10.54575 -10.54397
 Alpha  occ. eigenvalues --  -10.54390 -10.54220  -8.21335  -6.13458  -6.13024
 Alpha  occ. eigenvalues --   -6.12804  -1.47147  -1.47011  -1.37852  -1.37771
 Alpha  occ. eigenvalues --   -1.37730  -1.37560  -1.11941  -1.04807  -1.02529
 Alpha  occ. eigenvalues --   -0.99389  -0.92544  -0.91355  -0.89640  -0.84384
 Alpha  occ. eigenvalues --   -0.83841  -0.82254  -0.81428  -0.81093  -0.80116
 Alpha  occ. eigenvalues --   -0.75074  -0.73997  -0.73605  -0.72044  -0.70088
 Alpha  occ. eigenvalues --   -0.69636  -0.69524  -0.69366  -0.68641  -0.66998
 Alpha  occ. eigenvalues --   -0.66734  -0.65165  -0.63425  -0.61241  -0.60387
 Alpha  occ. eigenvalues --   -0.58927  -0.57657  -0.57303  -0.57195  -0.56761
 Alpha  occ. eigenvalues --   -0.56676  -0.55492  -0.54768  -0.53542  -0.53426
 Alpha  occ. eigenvalues --   -0.53258  -0.53098  -0.52872  -0.52108  -0.51598
 Alpha  occ. eigenvalues --   -0.51200  -0.51079  -0.50467  -0.49873  -0.48977
 Alpha  occ. eigenvalues --   -0.48830  -0.48524  -0.46935  -0.46511  -0.45535
 Alpha  occ. eigenvalues --   -0.45233  -0.44582  -0.43461  -0.43321  -0.43045
 Alpha  occ. eigenvalues --   -0.42593  -0.41100  -0.40193  -0.39192  -0.38576
 Alpha  occ. eigenvalues --   -0.36818  -0.36367  -0.34242  -0.30092  -0.27946
 Alpha  occ. eigenvalues --   -0.27430  -0.26635
 Alpha virt. eigenvalues --   -0.01845  -0.01231   0.04609   0.10858   0.11027
 Alpha virt. eigenvalues --    0.12462   0.13221   0.14686   0.14815   0.16202
 Alpha virt. eigenvalues --    0.16307   0.17463   0.17675   0.17819   0.18512

 Mulliken charges:
               1
     1  C   -0.217240
     2  C   -0.072210
     3  C   -0.214622
     4  C   -0.079260
     5  C   -0.223126
     6  C    0.314812
     7  H    0.209179
     8  C    0.844004
     9  H    0.210276
    10  C    0.850365
    11  H    0.228585
    12  N   -0.730371
    13  F   -0.270914
    14  F   -0.268832
    15  F   -0.264841
    16  F   -0.262449
    17  F   -0.269569
    18  F   -0.270903
    19  H    0.395298
    20  C    0.392982
    21  S   -0.339812
    22  N   -0.635734
    23  H    0.372278
    24  C   -0.310889
    25  C   -0.294288
    26  C    0.031349
    27  C   -0.007057
    28  C   -0.316908
    29  C   -0.304782
    30  H    0.161108
    31  H    0.165947
    32  H    0.149498
    33  H    0.191554
    34  H    0.176990
    35  N   -0.447774
    36  H    0.144683
    37  H    0.159822
    38  H    0.167383
    39  H    0.152924
    40  H    0.164128
    41  C   -0.346989
    42  C   -0.332810
    43  H    0.150482
    44  H    0.181160
    45  H    0.175862
    46  H    0.144991
    47  H    0.175134
    48  H    0.170586
 Sum of Mulliken charges =  -0.00000

 Dipole moment (field-independent basis, Debye):
    X=              1.0553    Y=              3.3773    Z=              2.0017  Tot=              4.0653
 Quadrupole moment (field-independent basis, Debye-Ang):
   XX=           -160.1359   YY=           -175.9403   ZZ=           -166.5534
   XY=             13.5052   XZ=              8.0029   YZ=             -6.1277

  Exact polarizability:     303.232     -19.411     268.779      -9.828      20.109     171.295
 Approx polarizability:     291.090     -19.732     290.895     -19.972      24.797     205.290

 ******    5 imaginary frequencies (negative Signs) ******

                      1                      2                      3
                      A                      A                      A
 Frequencies --   -132.0105               -83.8880               -45.4296
 Red. masses --      1.3038                 1.3783                10.1663
 Frc consts  --      0.0134                 0.0057                 0.0124
 IR Inten    --      0.0919                 0.1155                 9.1643

                      4                      5                      6
                      A                      A                      A
 Frequencies --    -38.6899               -34.3007                24.4692
 Red. masses --     12.9590                14.1038                 5.6775
 Frc consts  --      0.0114                 0.0098                 0.0020
 IR Inten    --      0.0632                 2.0473                 0.5905

                      7                      8                      9
                      A                      A                      A
 Frequencies --     39.1273                55.6439                63.7231
 Red. masses --      5.0468                 3.8445                 3.5050
 Frc consts  --      0.0046                 0.0070                 0.0084
 IR Inten    --      0.2439                 0.7728                 2.0052

                     10                     11                     12
                      A                      A                      A
 Frequencies --     85.6252                97.6053               104.7883
 Red. masses --      3.5963                 6.3959                13.1952
 Frc consts  --      0.0155                 0.0359                 0.0854
 IR Inten    --      0.1643                 1.1216                 0.7378

                     13                     14                     15
                      A                      A                      A
 Frequencies --    112.1779               147.5040               151.1479
 Red. masses --      3.4297                 4.8865                 6.6555
 Frc consts  --      0.0254                 0.0626                 0.0896
 IR Inten    --      3.1400                 4.0706                 0.9706

                     16                     17                     18
                      A                      A                      A
 Frequencies --    157.3078               173.9614               188.8302
 Red. masses --      1.7643                 3.9786                 3.5968
 Frc consts  --      0.0257                 0.0709                 0.0756
 IR Inten    --      0.5078                 3.8292                 0.5127

                     19                     20                     21
                      A                      A                      A
 Frequencies --    229.8873               243.8047               264.4671
 Red. masses --      5.0543                 7.5421                 2.5675
 Frc consts  --      0.1574                 0.2641                 0.1058
 IR Inten    --      3.2784                 0.4707                 0.7171

                     22                     23                     24
                      A                      A                      A
 Frequencies --    271.7679               279.9803               286.9672
 Red. masses --      4.9507                 6.4530                 2.4823
 Frc consts  --      0.2154                 0.2980                 0.1204
 IR Inten    --      1.2202                 3.0251                 0.1722

                     25                     26                     27
                      A                      A                      A
 Frequencies --    294.1222               312.7269               342.8456
 Red. masses --      3.3813                 5.2771                 4.6026
 Frc consts  --      0.1723                 0.3041                 0.3187
 IR Inten    --      2.9389                 6.1290                19.9079

                     28                     29                     30
                      A                      A                      A
 Frequencies --    361.0302               375.0529               399.3505
 Red. masses --      9.7320                 3.3517                 6.0172
 Frc consts  --      0.7474                 0.2778                 0.5654
 IR Inten    --      6.3972                 3.3528                 5.4005

                     31                     32                     33
                      A                      A                      A
 Frequencies --    413.9045               421.9163               434.2434
 Red. masses --      2.7512                 3.8701                 3.0018
 Frc consts  --      0.2777                 0.4059                 0.3335
 IR Inten    --     32.1024                 4.0540                 5.2857

                     34                     35                     36
                      A                      A                      A
 Frequencies --    450.1643               456.9978               472.5056
 Red. masses --      2.6492                 1.6788                 4.1633
 Frc consts  --      0.3163                 0.2066                 0.5476
 IR Inten    --      5.4267                83.7400                13.3098

                     37                     38                     39
                      A                      A                      A
 Frequencies --    512.2918               519.8784               530.0725
 Red. masses --      8.0669                 3.1322                 2.4683
 Frc consts  --      1.2474                 0.4988                 0.4086
 IR Inten    --      0.4417                27.1993                42.9955

                     40                     41                     42
                      A                      A                      A
 Frequencies --    536.2512               550.3233               572.9866
 Red. masses --      1.9257                 2.2687                13.1920
 Frc consts  --      0.3263                 0.4048                 2.5518
 IR Inten    --     20.3651                 9.4631                 0.2989

                     43                     44                     45
                      A                      A                      A
 Frequencies --    605.8473               617.2311               626.5101
 Red. masses --      6.3137                 6.6411                 5.6605
 Frc consts  --      1.3654                 1.4907                 1.3091
 IR Inten    --      7.0760                19.5233                 0.4374

                     46                     47                     48
                      A                      A                      A
 Frequencies --    636.8461               675.7871               689.4737
 Red. masses --      7.2916                 7.5790                12.4558
 Frc consts  --      1.7424                 2.0393                 3.4886
 IR Inten    --     24.5094                33.8296                54.3221

                     49                     50                     51
                      A                      A                      A
 Frequencies --    699.0771               726.9946               752.7707
 Red. masses --      7.0088                 2.5363                12.9006
 Frc consts  --      2.0181                 0.7898                 4.3071
 IR Inten    --      6.7119                15.6024                 8.1125

                     52                     53                     54
                      A                      A                      A
 Frequencies --    764.8083               802.4056               842.6674
 Red. masses --      1.8036                 2.7072                 1.9701
 Frc consts  --      0.6216                 1.0270                 0.8242
 IR Inten    --      3.1103                 5.3803                 6.0577

                     55                     56                     57
                      A                      A                      A
 Frequencies --    852.8699               870.6113               884.4887
 Red. masses --      4.1179                 1.9748                 3.9441
 Frc consts  --      1.7648                 0.8819                 1.8180
 IR Inten    --     13.5756                20.7015                 2.7320

                     58                     59                     60
                      A                      A                      A
 Frequencies --    905.9440               911.1196               925.5844
 Red. masses --      1.7174                 2.3399                 1.4419
 Frc consts  --      0.8305                 1.1444                 0.7278
 IR Inten    --     35.8353                14.2170                 6.4110

                     61                     62                     63
                      A                      A                      A
 Frequencies --    946.0224               954.7472               967.6133
 Red. masses --      1.3733                 2.2214                 2.4833
 Frc consts  --      0.7241                 1.1931                 1.3699
 IR Inten    --      4.3897                16.6747                 4.5755

                     64                     65                     66
                      A                      A                      A
 Frequencies --    981.1275              1010.3771              1049.6950
 Red. masses --      5.3538                 6.1299                 1.6082
 Frc consts  --      3.0364                 3.6869                 1.0441
 IR Inten    --     18.1944                 2.8870                21.3597

                     67                     68                     69
                      A                      A                      A
 Frequencies --   1052.6561              1059.0718              1077.6548
 Red. masses --      1.5301                 1.8279                 1.6363
 Frc consts  --      0.9989                 1.2080                 1.1196
 IR Inten    --      8.3282                22.6710                31.7919

                     70                     71                     72
                      A                      A                      A
 Frequencies --   1101.2124              1107.1435              1114.0223
 Red. masses --      1.4289                 2.2627                 1.8390
 Frc consts  --      1.0209                 1.6341                 1.3447
 IR Inten    --      6.0487                 3.2442                11.8629

                     73                     74                     75
                      A                      A                      A
 Frequencies --   1124.7059              1137.5106              1152.3203
 Red. masses --      2.1288                 2.1818                 1.9660
 Frc consts  --      1.5866                 1.6633                 1.5380
 IR Inten    --      2.1284                48.0973                21.8561

                     76                     77                     78
                      A                      A                      A
 Frequencies --   1174.1203              1187.4562              1215.9707
 Red. masses --      1.9240                 2.3562                 2.0558
 Frc consts  --      1.5627                 1.9575                 1.7910
 IR Inten    --     33.2203                16.6319                11.2078

                     79                     80                     81
                      A                      A                      A
 Frequencies --   1226.0347              1248.9326              1253.0059
 Red. masses --      2.0261                 1.9379                 2.4385
 Frc consts  --      1.7944                 1.7810                 2.2557
 IR Inten    --    223.8308                79.5514               184.1664

                     82                     83                     84
                      A                      A                      A
 Frequencies --   1276.3208              1282.8924              1289.3085
 Red. masses --      1.6105                 1.8715                 2.7781
 Frc consts  --      1.5457                 1.8148                 2.7209
 IR Inten    --     16.4322                31.5234               113.2315

                     85                     86                     87
                      A                      A                      A
 Frequencies --   1293.6679              1296.4897              1299.3612
 Red. masses --      6.4256                 7.2091                 7.3504
 Frc consts  --      6.3359                 7.1395                 7.3118
 IR Inten    --    149.4997               542.0387               399.1489

                     88                     89                     90
                      A                      A                      A
 Frequencies --   1303.5435              1304.1046              1313.1662
 Red. masses --      3.0123                 4.5342                 1.4262
 Frc consts  --      3.0158                 4.5433                 1.4490
 IR Inten    --     79.5256               409.1771                11.3076

                     91                     92                     93
                      A                      A                      A
 Frequencies --   1329.4230              1339.5150              1346.7626
 Red. masses --      1.7559                 2.0155                 1.9388
 Frc consts  --      1.8284                 2.1307                 2.0719
 IR Inten    --     47.7136                80.4703                40.3951

                     94                     95                     96
                      A                      A                      A
 Frequencies --   1356.9960              1364.8474              1371.8989
 Red. masses --      1.3304                 1.3426                 1.4607
 Frc consts  --      1.4435                 1.4735                 1.6198
 IR Inten    --      6.7164                 3.2683                 1.8632

                     97                     98                     99
                      A                      A                      A
 Frequencies --   1380.5456              1388.7815              1396.6477
 Red. masses --      1.8743                 1.6005                 3.0733
 Frc consts  --      2.1047                 1.8188                 3.5321
 IR Inten    --     57.4612                25.3494               293.6746

                    100                    101                    102
                      A                      A                      A
 Frequencies --   1408.2715              1426.7231              1452.4515
 Red. masses --      1.5189                 2.0353                 1.1660
 Frc consts  --      1.7748                 2.4409                 1.4493
 IR Inten    --     56.5436               201.1354                 0.7646

                    103                    104                    105
                      A                      A                      A
 Frequencies --   1485.3271              1495.3765              1500.1420
 Red. masses --      1.1963                 3.0081                 1.1193
 Frc consts  --      1.5550                 3.9631                 1.4842
 IR Inten    --      1.9699               176.1746                 7.2483

                    106                    107                    108
                      A                      A                      A
 Frequencies --   1505.7833              1506.1661              1507.4268
 Red. masses --      1.1124                 3.6477                 1.0529
 Frc consts  --      1.4861                 4.8754                 1.4096
 IR Inten    --     10.2697               121.5628                 7.4879

                    109                    110                    111
                      A                      A                      A
 Frequencies --   1508.7532              1521.3670              1522.6765
 Red. masses --      1.0918                 1.0968                 1.0605
 Frc consts  --      1.4644                 1.4957                 1.4486
 IR Inten    --     11.8946                 4.1235                 5.6750

                    112                    113                    114
                      A                      A                      A
 Frequencies --   1524.9393              1535.9376              1541.9887
 Red. masses --      1.0529                 1.0818                 1.7180
 Frc consts  --      1.4427                 1.5037                 2.4067
 IR Inten    --     10.2715                31.2214               328.6318

                    115                    116                    117
                      A                      A                      A
 Frequencies --   1581.8697              1669.1974              1683.6189
 Red. masses --      2.1179                 5.8403                 6.0213
 Frc consts  --      3.1224                 9.5874                10.0561
 IR Inten    --    829.5843                39.4565                16.5282

                    118                    119                    120
                      A                      A                      A
 Frequencies --   3101.1203              3101.5217              3108.2388
 Red. masses --      1.0379                 1.0608                 1.0539
 Frc consts  --      5.8808                 6.0124                 5.9988
 IR Inten    --     52.3541                39.1567                34.3025

                    121                    122                    123
                      A                      A                      A
 Frequencies --   3124.0945              3124.5708              3129.8390
 Red. masses --      1.0611                 1.0644                 1.0671
 Frc consts  --      6.1017                 6.1224                 6.1589
 IR Inten    --     25.2545                40.7871                 5.2839

                    124                    125                    126
                      A                      A                      A
 Frequencies --   3141.0589              3144.6341              3162.5004
 Red. masses --      1.0749                 1.0685                 1.0988
 Frc consts  --      6.2486                 6.2251                 6.4747
 IR Inten    --     11.5953                43.6499                26.4969

                    127                    128                    129
                      A                      A                      A
 Frequencies --   3168.0527              3170.0723              3170.7572
 Red. masses --      1.1016                 1.1008                 1.1021
 Frc consts  --      6.5140                 6.5180                 6.5283
 IR Inten    --     46.1059                42.8593                53.7227

                    130                    131                    132
                      A                      A                      A
 Frequencies --   3180.7016              3186.9179              3188.3985
 Red. masses --      1.1038                 1.1033                 1.1026
 Frc consts  --      6.5794                 6.6025                 6.6043
 IR Inten    --     29.0117                23.1567                30.8656

                    133                    134                    135
                      A                      A                      A
 Frequencies --   3192.2987              3260.4162              3273.1772
 Red. masses --      1.1036                 1.0932                 1.0909
 Frc consts  --      6.6263                 6.8468                 6.8860
 IR Inten    --     38.7924                24.2269                 1.2277

                    136                    137                    138
                      A                      A                      A
 Frequencies --   3275.4312              3662.3872              3670.0606
 Red. masses --      1.0914                 1.0773                 1.0759
 Frc consts  --      6.8986                 8.5135                 8.5379
 IR Inten    --      1.2864               100.2337                64.3988

 - Thermochemistry -
 -------------------
 Temperature   298.150 Kelvin.  Pressure   1.00000 Atm.
 Atom     1 has atomic number  6 and mass  12.00000

 Molecular mass:   413.13604 amu.
 Principal axes and moments of inertia in atomic units:
                           1         2         3
     Eigenvalues --  7278.87823********************
           X            0.99994   0.00565   0.00955
           Y           -0.00562   0.99998  -0.00404
           Z           -0.00957   0.00398   0.99995
 This molecule is an asymmetric top.
 Rotational symmetry number  1.
 Warning -- assumption of classical behavior for rotation
           may cause significant error
 Rotational temperatures (Kelvin)      0.01190     0.00476     0.00377
 Rotational constants (GHZ):           0.24794     0.09928     0.07855
    5 imaginary frequencies ignored.
 Zero-point vibrational energy     997185.7 (Joules/Mol)
                                  238.33310 (Kcal/Mol)
 Warning -- explicit consideration of  39 degrees of freedom as
           vibrations may cause significant error
 Vibrational temperatures:     35.21    56.30    80.06    91.68   123.20
          (Kelvin)            140.43   150.77   161.40   212.23   217.47
                              226.33   250.29   271.68   330.76   350.78
                              380.51   391.01   402.83   412.88   423.18
                              449.94   493.28   519.44   539.62   574.58
                              595.52   607.04   624.78   647.69   657.52
                              679.83   737.07   747.99   762.66   771.55
                              791.79   824.40   871.68   888.06   901.41
                              916.28   972.31   992.00  1005.82  1045.98
                             1083.07  1100.39  1154.48  1212.41  1227.09
                             1252.62  1272.58  1303.45  1310.90  1331.71
                             1361.12  1373.67  1392.18  1411.62  1453.71
                             1510.28  1514.54  1523.77  1550.50  1584.40
                             1592.93  1602.83  1618.20  1636.62  1657.93
                             1689.30  1708.48  1749.51  1763.99  1796.94
                             1802.80  1836.34  1845.80  1855.03  1861.30
                             1865.36  1869.49  1875.51  1876.32  1889.35
                             1912.74  1927.26  1937.69  1952.41  1963.71
                             1973.86  1986.30  1998.15  2009.46  2026.19
                             2052.74  2089.75  2137.05  2151.51  2158.37
                             2166.49  2167.04  2168.85  2170.76  2188.91
                             2190.79  2194.05  2209.87  2218.58  2275.96
                             2401.60  2422.35  4461.82  4462.40  4472.06
                             4494.88  4495.56  4503.14  4519.28  4524.43
                             4550.13  4558.12  4561.03  4562.01  4576.32
                             4585.26  4587.39  4593.01  4691.01  4709.37
                             4712.61  5269.36  5280.40

 Zero-point correction=                           0.379808 (Hartree/Particle)
 Thermal correction to Energy=                    0.402419
 Thermal correction to Enthalpy=                  0.403364
 Thermal correction to Gibbs Free Energy=         0.327672
 Sum of electronic and zero-point Energies=          -1821.029811
 Sum of electronic and thermal Energies=             -1821.007200
 Sum of electronic and thermal Enthalpies=           -1821.006256
 Sum of electronic and thermal Free Energies=        -1821.081947

                     E (Thermal)             CV                S
                      KCal/Mol        Cal/Mol-Kelvin    Cal/Mol-Kelvin
 Total                  252.522             89.091            159.306
 Electronic               0.000              0.000              0.000
 Translational            0.889              2.981             43.947
 Rotational               0.889              2.981             36.362
 Vibrational            250.745             83.129             78.998
 Vibration     1          0.593              1.985              6.234
 Vibration     2          0.594              1.981              5.303
 Vibration     3          0.596              1.975              4.606
 Vibration     4          0.597              1.972              4.338
 Vibration     5          0.601              1.959              3.758
 Vibration     6          0.603              1.951              3.502
 Vibration     7          0.605              1.945              3.363
 Vibration     8          0.607              1.939              3.231
 Vibration     9          0.617              1.905              2.704
 Vibration    10          0.619              1.901              2.658
 Vibration    11          0.621              1.894              2.582
 Vibration    12          0.627              1.875              2.392
 Vibration    13          0.633              1.855              2.239
 Vibration    14          0.652              1.795              1.880
 Vibration    15          0.659              1.773              1.775
 Vibration    16          0.671              1.738              1.632
 Vibration    17          0.675              1.725              1.585
 Vibration    18          0.680              1.711              1.534
 Vibration    19          0.684              1.698              1.492
 Vibration    20          0.689              1.685              1.450
 Vibration    21          0.701              1.649              1.348
 Vibration    22          0.722              1.590              1.199
 Vibration    23          0.735              1.553              1.118
 Vibration    24          0.746              1.523              1.059
 Vibration    25          0.765              1.472              0.965
 Vibration    26          0.777              1.440              0.913
 Vibration    27          0.784              1.423              0.885
 Vibration    28          0.795              1.396              0.845
 Vibration    29          0.809              1.361              0.795
 Vibration    30          0.815              1.345              0.775
 Vibration    31          0.829              1.311              0.731
 Vibration    32          0.867              1.223              0.628
 Vibration    33          0.875              1.206              0.610
 Vibration    34          0.885              1.183              0.587
 Vibration    35          0.891              1.170              0.573
 Vibration    36          0.906              1.139              0.544
 Vibration    37          0.929              1.090              0.499
 Vibration    38          0.964              1.019              0.440
 Vibration    39          0.977              0.995              0.421

 Normal termination of Gaussian 16 at Sat Dec  9 20:19:59 2023.
