 Gaussian 16, Revision C.01,
 Gaussian 16:  ES64L-G16RevC.01  3-Jul-2019

 -----------------------------------------------------------
 # m062x 6-31g(d) scrf=(iefpcm,solvent=benzene) freq=noraman
 -----------------------------------------------------------

 -------------
 Structure1518
 -------------
 Symbolic Z-matrix:
 Charge =  1 Multiplicity = 1

                         Standard orientation:
 ---------------------------------------------------------------------
 Center     Atomic      Atomic             Coordinates (Angstroms)
 Number     Number       Type             X           Y           Z
 ---------------------------------------------------------------------
      1          6           0       -2.597346    1.042726    0.528291
      2          7           0       -1.662963    0.090129    1.115436
      3          6           0       -1.227638   -0.775368    0.020856
      4          6           0       -2.483049   -0.941340   -0.845861
      5          6           0       -3.404953    0.219608   -0.467891
      6          1           0       -3.238916    1.468825    1.304669
      7          1           0       -2.089905    1.878002    0.038892
      8          6           0       -0.006310   -0.180139   -0.727266
      9          1           0       -0.958088   -1.735573    0.466069
     10          1           0       -2.245894   -0.925560   -1.911215
     11          1           0       -2.957054   -1.907758   -0.662573
     12          1           0       -4.331991   -0.136771   -0.013938
     13          1           0       -3.690893    0.817484   -1.335228
     14          1           0       -0.309616    0.696046   -1.304295
     15          1           0        0.488203   -0.887677   -1.396346
     16          7           0        1.029910    0.330090    0.306751
     17          6           0        2.064698    1.334973   -0.241649
     18          6           0        3.233620    0.459071   -0.706074
     19          6           0        3.147969   -0.856465    0.086383
     20          6           0        1.887551   -0.776755    0.957379
     21          1           0        2.323353    1.976104    0.606739
     22          1           0        1.621122    1.982549   -1.003342
     23          1           0        3.171828    0.275851   -1.781675
     24          1           0        4.187300    0.966897   -0.538374
     25          1           0        4.032919   -1.003053    0.711577
     26          1           0        3.103130   -1.719846   -0.582150
     27          1           0        2.095019   -0.420007    1.970780
     28          1           0        1.316453   -1.703537    1.060587
     29          1           0        0.412786    0.750603    1.005170
     30          1           0       -2.185631   -0.471987    1.784344
 ---------------------------------------------------------------------

 SCF Done:  E(RM062X) =  -463.489094653     A.U. after   12 cycles

 The electronic state is 1-A.
 Alpha  occ. eigenvalues --  -14.94466 -14.81509 -10.67924 -10.67731 -10.67701
 Alpha  occ. eigenvalues --  -10.65112 -10.62401 -10.62368 -10.61904 -10.59692
 Alpha  occ. eigenvalues --  -10.58673  -1.17683  -1.10260  -0.97851  -0.92394
 Alpha  occ. eigenvalues --   -0.91934  -0.90719  -0.84931  -0.78757  -0.75320
 Alpha  occ. eigenvalues --   -0.73768  -0.71838  -0.69965  -0.66318  -0.65365
 Alpha  occ. eigenvalues --   -0.61360  -0.59778  -0.59658  -0.56854  -0.56096
 Alpha  occ. eigenvalues --   -0.55433  -0.54291  -0.53397  -0.50846  -0.49936
 Alpha  occ. eigenvalues --   -0.49606  -0.48917  -0.47380  -0.45956  -0.45864
 Alpha  occ. eigenvalues --   -0.45600  -0.43478  -0.36880
 Alpha virt. eigenvalues --    0.01570   0.04686   0.05029   0.06365   0.07260
 Alpha virt. eigenvalues --    0.08355   0.09329   0.10335   0.10993   0.11679
 Alpha virt. eigenvalues --    0.12777   0.13662   0.14164   0.15400   0.15728

 Mulliken charges:
               1
     1  C   -0.203146
     2  N   -0.614324
     3  C   -0.051218
     4  C   -0.336120
     5  C   -0.333516
     6  H    0.199557
     7  H    0.171505
     8  C   -0.192797
     9  H    0.195009
    10  H    0.181572
    11  H    0.196962
    12  H    0.187753
    13  H    0.184708
    14  H    0.220494
    15  H    0.237136
    16  N   -0.572700
    17  C   -0.193670
    18  C   -0.340798
    19  C   -0.341020
    20  C   -0.201201
    21  H    0.233689
    22  H    0.237744
    23  H    0.209741
    24  H    0.223918
    25  H    0.223056
    26  H    0.210625
    27  H    0.235525
    28  H    0.236099
    29  H    0.439246
    30  H    0.356172
 Sum of Mulliken charges =   1.00000

 Dipole moment (field-independent basis, Debye):
    X=              3.1078    Y=              0.1326    Z=              0.4064  Tot=              3.1370
 Quadrupole moment (field-independent basis, Debye-Ang):
   XX=            -40.1442   YY=            -59.6163   ZZ=            -61.7665
   XY=              2.2855   XZ=             -0.6419   YZ=             -1.9364

  Exact polarizability:     128.630      -0.136     104.609      -0.216      -0.892     100.607
 Approx polarizability:     116.628       0.188     113.171      -0.706      -1.466     112.124

 ******    3 imaginary frequencies (negative Signs) ******

                      1                      2                      3
                      A                      A                      A
 Frequencies --   -121.8062              -117.4710               -67.1240
 Red. masses --      1.7883                 1.6872                 2.8876
 Frc consts  --      0.0156                 0.0137                 0.0077
 IR Inten    --      0.1848                 0.0382                 1.2748

                      4                      5                      6
                      A                      A                      A
 Frequencies --     86.2034               114.4013               169.8596
 Red. masses --      3.0277                 2.6909                 3.0389
 Frc consts  --      0.0133                 0.0207                 0.0517
 IR Inten    --      5.2234                 0.5915                 3.2321

                      7                      8                      9
                      A                      A                      A
 Frequencies --    230.0956               260.4127               348.6706
 Red. masses --      2.3613                 2.5069                 2.2741
 Frc consts  --      0.0737                 0.1002                 0.1629
 IR Inten    --      7.0643                 5.5116                 3.3673

                     10                     11                     12
                      A                      A                      A
 Frequencies --    429.3483               488.5839               640.1724
 Red. masses --      2.1008                 2.6113                 2.4879
 Frc consts  --      0.2282                 0.3673                 0.6007
 IR Inten    --      4.6042                16.6020                 0.3606

                     13                     14                     15
                      A                      A                      A
 Frequencies --    652.1895               678.5858               716.5847
 Red. masses --      1.9931                 2.1778                 3.0092
 Frc consts  --      0.4995                 0.5908                 0.9104
 IR Inten    --      1.0673                 4.2685                 2.3227

                     16                     17                     18
                      A                      A                      A
 Frequencies --    783.9387               797.0167               810.5045
 Red. masses --      1.9768                 1.4738                 1.9611
 Frc consts  --      0.7158                 0.5516                 0.7590
 IR Inten    --      3.4696                 3.2195                 7.5600

                     19                     20                     21
                      A                      A                      A
 Frequencies --    816.2823               866.5290               885.3840
 Red. masses --      2.2556                 2.1936                 1.8338
 Frc consts  --      0.8855                 0.9705                 0.8470
 IR Inten    --      7.2146                13.2239                71.4319

                     22                     23                     24
                      A                      A                      A
 Frequencies --    891.7242               901.0145               922.4390
 Red. masses --      2.0415                 2.5063                 1.9411
 Frc consts  --      0.9564                 1.1988                 0.9732
 IR Inten    --     51.7929                37.3372                12.6980

                     25                     26                     27
                      A                      A                      A
 Frequencies --    934.0372               963.9126               982.2406
 Red. masses --      2.7040                 2.5583                 1.7064
 Frc consts  --      1.3899                 1.4005                 0.9700
 IR Inten    --     12.2673                 2.6323                 4.9824

                     28                     29                     30
                      A                      A                      A
 Frequencies --   1002.6265              1019.5837              1041.3035
 Red. masses --      2.0374                 2.3981                 2.0545
 Frc consts  --      1.2067                 1.4688                 1.3125
 IR Inten    --      2.7418                 5.7472                 9.8885

                     31                     32                     33
                      A                      A                      A
 Frequencies --   1068.9573              1094.7682              1106.0288
 Red. masses --      1.6017                 1.7408                 2.1022
 Frc consts  --      1.0783                 1.2292                 1.5151
 IR Inten    --      1.5727                 2.9634                 5.2377

                     34                     35                     36
                      A                      A                      A
 Frequencies --   1114.6390              1132.0948              1175.3981
 Red. masses --      1.8597                 1.8165                 2.5284
 Frc consts  --      1.3613                 1.3717                 2.0581
 IR Inten    --      1.6268                 1.7351                41.6989

                     37                     38                     39
                      A                      A                      A
 Frequencies --   1218.1245              1232.5110              1248.1359
 Red. masses --      1.2920                 1.2039                 1.2554
 Frc consts  --      1.1295                 1.0775                 1.1523
 IR Inten    --      3.6175                 3.7075                26.3202

                     40                     41                     42
                      A                      A                      A
 Frequencies --   1258.9958              1262.8880              1272.7918
 Red. masses --      1.2798                 1.3214                 1.3185
 Frc consts  --      1.1952                 1.2417                 1.2584
 IR Inten    --      3.4531                 2.7200                 5.2593

                     43                     44                     45
                      A                      A                      A
 Frequencies --   1279.3336              1293.0128              1306.1435
 Red. masses --      1.2008                 1.2808                 1.2631
 Frc consts  --      1.1580                 1.2616                 1.2696
 IR Inten    --      4.4500                13.2764                27.8772

                     46                     47                     48
                      A                      A                      A
 Frequencies --   1314.3578              1340.5672              1346.2520
 Red. masses --      1.3247                 1.3212                 1.3066
 Frc consts  --      1.3483                 1.3989                 1.3952
 IR Inten    --     10.1373                 0.1911                 0.4726

                     49                     50                     51
                      A                      A                      A
 Frequencies --   1359.1812              1367.4767              1373.6080
 Red. masses --      1.3405                 1.3184                 1.4472
 Frc consts  --      1.4590                 1.4526                 1.6088
 IR Inten    --      9.2691                 6.6916                 3.7071

                     52                     53                     54
                      A                      A                      A
 Frequencies --   1390.3553              1401.6296              1421.2873
 Red. masses --      1.3591                 1.3336                 1.3993
 Frc consts  --      1.5479                 1.5436                 1.6654
 IR Inten    --     29.3562                 7.8738                27.0062

                     55                     56                     57
                      A                      A                      A
 Frequencies --   1428.2852              1444.9834              1501.8052
 Red. masses --      1.3875                 1.2249                 1.0866
 Frc consts  --      1.6677                 1.5069                 1.4439
 IR Inten    --      7.4697                48.6286                14.6274

                     58                     59                     60
                      A                      A                      A
 Frequencies --   1505.8463              1518.6824              1522.8307
 Red. masses --      1.1979                 1.0819                 1.0845
 Frc consts  --      1.6004                 1.4702                 1.4818
 IR Inten    --     14.8691                 0.1688                 0.9251

                     61                     62                     63
                      A                      A                      A
 Frequencies --   1529.0306              1535.2578              1537.7467
 Red. masses --      1.0906                 1.0883                 1.0834
 Frc consts  --      1.5023                 1.5114                 1.5095
 IR Inten    --      9.4754                 6.8051                12.8257

                     64                     65                     66
                      A                      A                      A
 Frequencies --   1551.3030              1557.3248              3113.1532
 Red. masses --      1.1068                 1.1009                 1.0613
 Frc consts  --      1.5693                 1.5731                 6.0600
 IR Inten    --      4.5518                 2.4073                31.5058

                     67                     68                     69
                      A                      A                      A
 Frequencies --   3115.9593              3124.0934              3125.0360
 Red. masses --      1.0657                 1.0625                 1.0620
 Frc consts  --      6.0964                 6.1098                 6.1107
 IR Inten    --      5.9898                18.5558                 7.6524

                     70                     71                     72
                      A                      A                      A
 Frequencies --   3128.7083              3130.7093              3131.2627
 Red. masses --      1.0627                 1.0660                 1.0691
 Frc consts  --      6.1289                 6.1560                 6.1758
 IR Inten    --     11.5114                 5.9014                20.7221

                     73                     74                     75
                      A                      A                      A
 Frequencies --   3139.4897              3144.9782              3152.5864
 Red. masses --      1.0781                 1.0670                 1.1035
 Frc consts  --      6.2605                 6.2182                 6.4621
 IR Inten    --     10.8033                 8.8375                10.5851

                     76                     77                     78
                      A                      A                      A
 Frequencies --   3156.9921              3163.3387              3167.7631
 Red. masses --      1.1049                 1.1054                 1.1062
 Frc consts  --      6.4879                 6.5174                 6.5401
 IR Inten    --      0.1554                 1.4407                 1.6012

                     79                     80                     81
                      A                      A                      A
 Frequencies --   3175.4777              3179.0569              3184.8117
 Red. masses --      1.1060                 1.1057                 1.1065
 Frc consts  --      6.5706                 6.5837                 6.6127
 IR Inten    --      3.5349                37.9025                 6.5127

                     82                     83                     84
                      A                      A                      A
 Frequencies --   3207.8540              3468.0138              3545.7584
 Red. masses --      1.1098                 1.0786                 1.0754
 Frc consts  --      6.7283                 7.6430                 7.9656
 IR Inten    --      2.5202               241.9357                15.2704

 - Thermochemistry -
 -------------------
 Temperature   298.150 Kelvin.  Pressure   1.00000 Atm.
 Atom     1 has atomic number  6 and mass  12.00000

 Molecular mass:   155.15482 amu.
 Principal axes and moments of inertia in atomic units:
                           1         2         3
     Eigenvalues --   676.659023299.223763376.51206
           X            1.00000  -0.00103   0.00159
           Y            0.00109   0.99936  -0.03589
           Z           -0.00156   0.03589   0.99935
 This molecule is an asymmetric top.
 Rotational symmetry number  1.
 Warning -- assumption of classical behavior for rotation
           may cause significant error
 Rotational temperatures (Kelvin)      0.12800     0.02625     0.02565
 Rotational constants (GHZ):           2.66714     0.54702     0.53450
    3 imaginary frequencies ignored.
 Zero-point vibrational energy     753649.3 (Joules/Mol)
                                  180.12650 (Kcal/Mol)
 Warning -- explicit consideration of   8 degrees of freedom as
           vibrations may cause significant error
 Vibrational temperatures:    124.03   164.60   244.39   331.06   374.68
          (Kelvin)            501.66   617.74   702.96   921.07   938.36
                              976.33  1031.01  1127.91  1146.73  1166.14
                             1174.45  1246.74  1273.87  1282.99  1296.36
                             1327.18  1343.87  1386.86  1413.23  1442.56
                             1466.95  1498.20  1537.99  1575.13  1591.33
                             1603.72  1628.83  1691.14  1752.61  1773.31
                             1795.79  1811.41  1817.01  1831.26  1840.68
                             1860.36  1879.25  1891.07  1928.78  1936.96
                             1955.56  1967.49  1976.32  2000.41  2016.63
                             2044.92  2054.98  2079.01  2160.76  2166.58
                             2185.05  2191.01  2199.93  2208.89  2212.47
                             2231.98  2240.64  4479.13  4483.17  4494.87
                             4496.23  4501.51  4504.39  4505.19  4517.03
                             4524.92  4535.87  4542.21  4551.34  4557.70
                             4568.80  4573.95  4582.23  4615.39  4989.70
                             5101.56

 Zero-point correction=                           0.287050 (Hartree/Particle)
 Thermal correction to Energy=                    0.295534
 Thermal correction to Enthalpy=                  0.296478
 Thermal correction to Gibbs Free Energy=         0.252996
 Sum of electronic and zero-point Energies=           -463.202045
 Sum of electronic and thermal Energies=              -463.193561
 Sum of electronic and thermal Enthalpies=            -463.192616
 Sum of electronic and thermal Free Energies=         -463.236099

                     E (Thermal)             CV                S
                      KCal/Mol        Cal/Mol-Kelvin    Cal/Mol-Kelvin
 Total                  185.450             35.533             91.517
 Electronic               0.000              0.000              0.000
 Translational            0.889              2.981             41.027
 Rotational               0.889              2.981             30.401
 Vibrational            183.673             29.572             20.089
 Vibration     1          0.601              1.959              3.744
 Vibration     2          0.607              1.937              3.193
 Vibration     3          0.625              1.880              2.437
 Vibration     4          0.652              1.795              1.878
 Vibration     5          0.668              1.745              1.659
 Vibration     6          0.726              1.578              1.172
 Vibration     7          0.791              1.406              0.861
 Vibration     8          0.844              1.275              0.687

 Normal termination of Gaussian 16 at Sat Dec  9 20:19:02 2023.
